/*--------------------------------*- C++ -*----------------------------------*\
| =========                 |                                                 |
| \\      /  F ield         | OpenFOAM: The Open Source CFD Toolbox           |
|  \\    /   O peration     | Version:  2406                                  |
|   \\  /    A nd           | Website:  www.openfoam.com                      |
|    \\/     M anipulation  |                                                 |
\*---------------------------------------------------------------------------*/
FoamFile
{
    version     2.0;
    format      ascii;
    arch        "LSB;label=32;scalar=64";
    class       volScalarField;
    location    "0.109";
    object      Cx;
}
// * * * * * * * * * * * * * * * * * * * * * * * * * * * * * * * * * * * * * //

dimensions      [0 1 0 0 0 0 0];

internalField   nonuniform List<scalar> 
8988
(
0.00453381
0.0045338
0.00453379
0.00453378
0.00453377
0.00453376
0.00453375
0.00453373
0.00453372
0.0045337
0.00453369
0.00453367
0.00453365
0.00453363
0.00453361
0.00453359
0.00453356
0.00453353
0.00453351
0.00453348
0.00453344
0.00453341
0.00453337
0.00453333
0.00453329
0.00453325
0.0045332
0.00453315
0.00453309
0.00453303
0.00453297
0.0045329
0.00453283
0.00453275
0.00453267
0.00453258
0.00453249
0.00453239
0.00453228
0.00453216
0.00453204
0.00453191
0.0135788
0.0135787
0.0135787
0.0135787
0.0135786
0.0135786
0.0135786
0.0135785
0.0135785
0.0135784
0.0135784
0.0135783
0.0135783
0.0135782
0.0135782
0.0135781
0.013578
0.0135779
0.0135778
0.0135778
0.0135777
0.0135776
0.0135774
0.0135773
0.0135772
0.0135771
0.0135769
0.0135768
0.0135766
0.0135764
0.0135762
0.013576
0.0135758
0.0135756
0.0135753
0.0135751
0.0135748
0.0135745
0.0135742
0.0135738
0.0135735
0.0135731
0.0225784
0.0225784
0.0225784
0.0225783
0.0225782
0.0225782
0.0225781
0.0225781
0.022578
0.0225779
0.0225778
0.0225777
0.0225777
0.0225776
0.0225774
0.0225773
0.0225772
0.0225771
0.0225769
0.0225768
0.0225766
0.0225765
0.0225763
0.0225761
0.0225759
0.0225756
0.0225754
0.0225752
0.0225749
0.0225746
0.0225743
0.0225739
0.0225736
0.0225732
0.0225728
0.0225724
0.0225719
0.0225714
0.0225708
0.0225703
0.0225697
0.022569
0.0315331
0.031533
0.031533
0.0315329
0.0315328
0.0315327
0.0315326
0.0315325
0.0315325
0.0315323
0.0315322
0.0315321
0.031532
0.0315318
0.0315317
0.0315315
0.0315314
0.0315312
0.031531
0.0315308
0.0315306
0.0315303
0.0315301
0.0315298
0.0315295
0.0315292
0.0315289
0.0315285
0.0315281
0.0315277
0.0315273
0.0315268
0.0315263
0.0315258
0.0315252
0.0315246
0.031524
0.0315233
0.0315225
0.0315217
0.0315209
0.03152
0.0404429
0.0404428
0.0404427
0.0404426
0.0404425
0.0404424
0.0404423
0.0404422
0.0404421
0.0404419
0.0404418
0.0404416
0.0404415
0.0404413
0.0404411
0.0404409
0.0404407
0.0404405
0.0404402
0.0404399
0.0404397
0.0404394
0.040439
0.0404387
0.0404383
0.0404379
0.0404375
0.0404371
0.0404366
0.0404361
0.0404355
0.0404349
0.0404343
0.0404336
0.0404329
0.0404321
0.0404313
0.0404304
0.0404294
0.0404284
0.0404274
0.0404262
0.049308
0.0493079
0.0493078
0.0493077
0.0493076
0.0493075
0.0493073
0.0493072
0.0493071
0.0493069
0.0493067
0.0493065
0.0493063
0.0493061
0.0493059
0.0493056
0.0493054
0.0493051
0.0493048
0.0493045
0.0493042
0.0493038
0.0493034
0.049303
0.0493025
0.0493021
0.0493015
0.049301
0.0493004
0.0492998
0.0492991
0.0492984
0.0492976
0.0492968
0.049296
0.049295
0.049294
0.049293
0.0492918
0.0492906
0.0492893
0.0492879
0.0581287
0.0581286
0.0581285
0.0581284
0.0581283
0.0581281
0.058128
0.0581278
0.0581276
0.0581274
0.0581272
0.058127
0.0581268
0.0581265
0.0581263
0.058126
0.0581257
0.0581253
0.058125
0.0581246
0.0581242
0.0581238
0.0581233
0.0581229
0.0581223
0.0581218
0.0581212
0.0581205
0.0581199
0.0581191
0.0581184
0.0581175
0.0581166
0.0581157
0.0581147
0.0581136
0.0581124
0.0581112
0.0581098
0.0581084
0.0581069
0.0581053
0.0669052
0.0669051
0.066905
0.0669048
0.0669047
0.0669045
0.0669043
0.0669041
0.0669039
0.0669037
0.0669035
0.0669032
0.066903
0.0669027
0.0669024
0.0669021
0.0669017
0.0669014
0.066901
0.0669005
0.0669001
0.0668996
0.0668991
0.0668985
0.0668979
0.0668973
0.0668966
0.0668959
0.0668951
0.0668943
0.0668934
0.0668925
0.0668915
0.0668904
0.0668892
0.066888
0.0668867
0.0668853
0.0668837
0.0668821
0.0668804
0.0668785
0.0756377
0.0756375
0.0756374
0.0756372
0.0756371
0.0756369
0.0756367
0.0756365
0.0756362
0.075636
0.0756357
0.0756355
0.0756352
0.0756349
0.0756345
0.0756342
0.0756338
0.0756334
0.0756329
0.0756325
0.075632
0.0756314
0.0756308
0.0756302
0.0756296
0.0756289
0.0756281
0.0756273
0.0756265
0.0756255
0.0756245
0.0756235
0.0756224
0.0756212
0.0756199
0.0756185
0.075617
0.0756154
0.0756138
0.075612
0.07561
0.075608
0.0843263
0.0843262
0.084326
0.0843258
0.0843256
0.0843254
0.0843252
0.084325
0.0843247
0.0843245
0.0843242
0.0843239
0.0843236
0.0843232
0.0843229
0.0843225
0.084322
0.0843216
0.0843211
0.0843206
0.08432
0.0843195
0.0843188
0.0843181
0.0843174
0.0843167
0.0843158
0.0843149
0.084314
0.084313
0.0843119
0.0843108
0.0843095
0.0843082
0.0843068
0.0843053
0.0843037
0.0843019
0.0843001
0.0842981
0.084296
0.0842937
0.0929713
0.0929712
0.092971
0.0929708
0.0929706
0.0929704
0.0929701
0.0929699
0.0929696
0.0929693
0.092969
0.0929687
0.0929684
0.092968
0.0929676
0.0929672
0.0929667
0.0929662
0.0929657
0.0929651
0.0929645
0.0929639
0.0929632
0.0929625
0.0929617
0.0929609
0.09296
0.092959
0.092958
0.0929569
0.0929557
0.0929545
0.0929532
0.0929517
0.0929502
0.0929486
0.0929468
0.092945
0.092943
0.0929408
0.0929385
0.0929361
0.101573
0.101573
0.101573
0.101572
0.101572
0.101572
0.101572
0.101571
0.101571
0.101571
0.10157
0.10157
0.10157
0.101569
0.101569
0.101568
0.101568
0.101567
0.101567
0.101566
0.101566
0.101565
0.101564
0.101563
0.101563
0.101562
0.101561
0.10156
0.101559
0.101558
0.101556
0.101555
0.101553
0.101552
0.10155
0.101549
0.101547
0.101545
0.101543
0.10154
0.101538
0.101535
0.110131
0.110131
0.110131
0.110131
0.11013
0.11013
0.11013
0.11013
0.110129
0.110129
0.110129
0.110128
0.110128
0.110128
0.110127
0.110127
0.110126
0.110126
0.110125
0.110124
0.110124
0.110123
0.110122
0.110121
0.11012
0.110119
0.110118
0.110117
0.110116
0.110115
0.110114
0.110112
0.110111
0.110109
0.110107
0.110106
0.110104
0.110101
0.110099
0.110097
0.110094
0.110091
0.118647
0.118647
0.118646
0.118646
0.118646
0.118646
0.118645
0.118645
0.118645
0.118644
0.118644
0.118644
0.118643
0.118643
0.118642
0.118642
0.118641
0.118641
0.11864
0.118639
0.118639
0.118638
0.118637
0.118636
0.118635
0.118634
0.118633
0.118632
0.118631
0.11863
0.118628
0.118627
0.118625
0.118623
0.118622
0.11862
0.118617
0.118615
0.118613
0.11861
0.118608
0.118605
0.127119
0.127119
0.127119
0.127119
0.127118
0.127118
0.127118
0.127118
0.127117
0.127117
0.127116
0.127116
0.127116
0.127115
0.127115
0.127114
0.127114
0.127113
0.127112
0.127112
0.127111
0.12711
0.127109
0.127108
0.127107
0.127106
0.127105
0.127104
0.127103
0.127101
0.1271
0.127098
0.127097
0.127095
0.127093
0.127091
0.127089
0.127086
0.127084
0.127081
0.127078
0.127075
0.135549
0.135549
0.135549
0.135549
0.135548
0.135548
0.135548
0.135547
0.135547
0.135547
0.135546
0.135546
0.135546
0.135545
0.135545
0.135544
0.135543
0.135543
0.135542
0.135541
0.135541
0.13554
0.135539
0.135538
0.135537
0.135536
0.135535
0.135533
0.135532
0.135531
0.135529
0.135528
0.135526
0.135524
0.135522
0.13552
0.135518
0.135515
0.135513
0.13551
0.135507
0.135504
0.143937
0.143937
0.143937
0.143936
0.143936
0.143936
0.143935
0.143935
0.143935
0.143934
0.143934
0.143933
0.143933
0.143933
0.143932
0.143931
0.143931
0.14393
0.143929
0.143929
0.143928
0.143927
0.143926
0.143925
0.143924
0.143923
0.143922
0.143921
0.143919
0.143918
0.143916
0.143915
0.143913
0.143911
0.143909
0.143907
0.143904
0.143902
0.143899
0.143896
0.143893
0.14389
0.152282
0.152282
0.152282
0.152282
0.152281
0.152281
0.152281
0.15228
0.15228
0.15228
0.152279
0.152279
0.152278
0.152278
0.152277
0.152277
0.152276
0.152275
0.152275
0.152274
0.152273
0.152272
0.152271
0.15227
0.152269
0.152268
0.152267
0.152266
0.152264
0.152263
0.152261
0.15226
0.152258
0.152256
0.152254
0.152251
0.152249
0.152247
0.152244
0.152241
0.152238
0.152234
0.160586
0.160586
0.160585
0.160585
0.160585
0.160585
0.160584
0.160584
0.160584
0.160583
0.160583
0.160582
0.160582
0.160581
0.160581
0.16058
0.16058
0.160579
0.160578
0.160577
0.160577
0.160576
0.160575
0.160574
0.160573
0.160571
0.16057
0.160569
0.160567
0.160566
0.160564
0.160563
0.160561
0.160559
0.160557
0.160554
0.160552
0.160549
0.160547
0.160544
0.16054
0.160537
0.168848
0.168847
0.168847
0.168847
0.168847
0.168846
0.168846
0.168846
0.168845
0.168845
0.168844
0.168844
0.168843
0.168843
0.168842
0.168842
0.168841
0.16884
0.16884
0.168839
0.168838
0.168837
0.168836
0.168835
0.168834
0.168833
0.168832
0.16883
0.168829
0.168827
0.168826
0.168824
0.168822
0.16882
0.168818
0.168816
0.168813
0.168811
0.168808
0.168805
0.168802
0.168798
0.177068
0.177068
0.177067
0.177067
0.177067
0.177066
0.177066
0.177066
0.177065
0.177065
0.177065
0.177064
0.177064
0.177063
0.177063
0.177062
0.177061
0.177061
0.17706
0.177059
0.177058
0.177057
0.177056
0.177055
0.177054
0.177053
0.177052
0.17705
0.177049
0.177047
0.177046
0.177044
0.177042
0.17704
0.177038
0.177036
0.177033
0.17703
0.177028
0.177025
0.177021
0.177018
0.185247
0.185246
0.185246
0.185246
0.185246
0.185245
0.185245
0.185245
0.185244
0.185244
0.185243
0.185243
0.185242
0.185242
0.185241
0.185241
0.18524
0.185239
0.185239
0.185238
0.185237
0.185236
0.185235
0.185234
0.185233
0.185232
0.185231
0.185229
0.185228
0.185226
0.185225
0.185223
0.185221
0.185219
0.185217
0.185214
0.185212
0.185209
0.185206
0.185203
0.1852
0.185197
0.193384
0.193384
0.193384
0.193384
0.193383
0.193383
0.193383
0.193382
0.193382
0.193382
0.193381
0.193381
0.19338
0.19338
0.193379
0.193378
0.193378
0.193377
0.193376
0.193376
0.193375
0.193374
0.193373
0.193372
0.193371
0.19337
0.193368
0.193367
0.193365
0.193364
0.193362
0.193361
0.193359
0.193357
0.193354
0.193352
0.19335
0.193347
0.193344
0.193341
0.193338
0.193334
0.201481
0.201481
0.201481
0.20148
0.20148
0.20148
0.20148
0.201479
0.201479
0.201478
0.201478
0.201477
0.201477
0.201476
0.201476
0.201475
0.201475
0.201474
0.201473
0.201472
0.201472
0.201471
0.20147
0.201469
0.201468
0.201466
0.201465
0.201464
0.201462
0.201461
0.201459
0.201457
0.201456
0.201454
0.201451
0.201449
0.201447
0.201444
0.201441
0.201438
0.201435
0.201431
0.209537
0.209537
0.209537
0.209537
0.209536
0.209536
0.209536
0.209535
0.209535
0.209534
0.209534
0.209534
0.209533
0.209533
0.209532
0.209531
0.209531
0.20953
0.209529
0.209529
0.209528
0.209527
0.209526
0.209525
0.209524
0.209523
0.209521
0.20952
0.209519
0.209517
0.209515
0.209514
0.209512
0.20951
0.209508
0.209505
0.209503
0.2095
0.209498
0.209495
0.209491
0.209488
0.217553
0.217553
0.217552
0.217552
0.217552
0.217551
0.217551
0.217551
0.21755
0.21755
0.21755
0.217549
0.217549
0.217548
0.217548
0.217547
0.217546
0.217546
0.217545
0.217544
0.217543
0.217543
0.217542
0.217541
0.21754
0.217538
0.217537
0.217536
0.217534
0.217533
0.217531
0.21753
0.217528
0.217526
0.217524
0.217522
0.217519
0.217517
0.217514
0.217511
0.217508
0.217504
0.225528
0.225528
0.225528
0.225527
0.225527
0.225527
0.225526
0.225526
0.225526
0.225525
0.225525
0.225525
0.225524
0.225524
0.225523
0.225522
0.225522
0.225521
0.22552
0.22552
0.225519
0.225518
0.225517
0.225516
0.225515
0.225514
0.225513
0.225511
0.22551
0.225509
0.225507
0.225505
0.225504
0.225502
0.2255
0.225497
0.225495
0.225493
0.22549
0.225487
0.225484
0.225481
0.233463
0.233463
0.233463
0.233463
0.233462
0.233462
0.233462
0.233461
0.233461
0.233461
0.23346
0.23346
0.233459
0.233459
0.233458
0.233458
0.233457
0.233457
0.233456
0.233455
0.233454
0.233453
0.233453
0.233452
0.233451
0.233449
0.233448
0.233447
0.233446
0.233444
0.233443
0.233441
0.233439
0.233437
0.233435
0.233433
0.233431
0.233429
0.233426
0.233423
0.23342
0.233417
0.241359
0.241358
0.241358
0.241358
0.241358
0.241357
0.241357
0.241357
0.241356
0.241356
0.241356
0.241355
0.241355
0.241354
0.241354
0.241353
0.241353
0.241352
0.241351
0.241351
0.24135
0.241349
0.241348
0.241347
0.241346
0.241345
0.241344
0.241343
0.241342
0.24134
0.241339
0.241337
0.241335
0.241334
0.241332
0.241329
0.241327
0.241325
0.241322
0.24132
0.241317
0.241314
0.249214
0.249214
0.249214
0.249213
0.249213
0.249213
0.249213
0.249212
0.249212
0.249212
0.249211
0.249211
0.24921
0.24921
0.24921
0.249209
0.249208
0.249208
0.249207
0.249207
0.249206
0.249205
0.249204
0.249203
0.249202
0.249201
0.2492
0.249199
0.249198
0.249196
0.249195
0.249193
0.249192
0.24919
0.249188
0.249186
0.249184
0.249182
0.249179
0.249177
0.249174
0.249171
0.25703
0.25703
0.25703
0.25703
0.257029
0.257029
0.257029
0.257029
0.257028
0.257028
0.257028
0.257027
0.257027
0.257026
0.257026
0.257025
0.257025
0.257024
0.257024
0.257023
0.257022
0.257021
0.257021
0.25702
0.257019
0.257018
0.257017
0.257016
0.257015
0.257013
0.257012
0.25701
0.257009
0.257007
0.257005
0.257003
0.257001
0.256999
0.256997
0.256994
0.256991
0.256989
0.264807
0.264807
0.264807
0.264807
0.264806
0.264806
0.264806
0.264806
0.264805
0.264805
0.264805
0.264804
0.264804
0.264803
0.264803
0.264802
0.264802
0.264801
0.264801
0.2648
0.264799
0.264799
0.264798
0.264797
0.264796
0.264795
0.264794
0.264793
0.264792
0.264791
0.26479
0.264788
0.264787
0.264785
0.264783
0.264781
0.264779
0.264777
0.264775
0.264773
0.26477
0.264767
0.272545
0.272545
0.272545
0.272544
0.272544
0.272544
0.272544
0.272543
0.272543
0.272543
0.272543
0.272542
0.272542
0.272541
0.272541
0.27254
0.27254
0.272539
0.272539
0.272538
0.272538
0.272537
0.272536
0.272536
0.272535
0.272534
0.272533
0.272532
0.272531
0.27253
0.272528
0.272527
0.272526
0.272524
0.272522
0.272521
0.272519
0.272517
0.272515
0.272512
0.27251
0.272507
0.280244
0.280244
0.280244
0.280243
0.280243
0.280243
0.280243
0.280242
0.280242
0.280242
0.280242
0.280241
0.280241
0.280241
0.28024
0.28024
0.280239
0.280239
0.280238
0.280238
0.280237
0.280236
0.280236
0.280235
0.280234
0.280233
0.280232
0.280232
0.280231
0.280229
0.280228
0.280227
0.280226
0.280224
0.280223
0.280221
0.280219
0.280217
0.280215
0.280213
0.280211
0.280208
0.287904
0.287904
0.287904
0.287904
0.287904
0.287903
0.287903
0.287903
0.287903
0.287902
0.287902
0.287902
0.287901
0.287901
0.287901
0.2879
0.2879
0.287899
0.287899
0.287898
0.287898
0.287897
0.287897
0.287896
0.287895
0.287894
0.287894
0.287893
0.287892
0.287891
0.28789
0.287888
0.287887
0.287886
0.287884
0.287883
0.287881
0.287879
0.287878
0.287876
0.287873
0.287871
0.295526
0.295526
0.295526
0.295526
0.295525
0.295525
0.295525
0.295525
0.295525
0.295524
0.295524
0.295524
0.295524
0.295523
0.295523
0.295523
0.295522
0.295522
0.295521
0.295521
0.29552
0.29552
0.295519
0.295518
0.295518
0.295517
0.295516
0.295515
0.295515
0.295514
0.295513
0.295511
0.29551
0.295509
0.295508
0.295506
0.295505
0.295503
0.295501
0.2955
0.295498
0.295495
0.30311
0.30311
0.30311
0.303109
0.303109
0.303109
0.303109
0.303109
0.303108
0.303108
0.303108
0.303108
0.303107
0.303107
0.303107
0.303106
0.303106
0.303106
0.303105
0.303105
0.303104
0.303104
0.303103
0.303103
0.303102
0.303101
0.303101
0.3031
0.303099
0.303098
0.303097
0.303096
0.303095
0.303094
0.303093
0.303092
0.30309
0.303089
0.303087
0.303085
0.303084
0.303082
0.310655
0.310655
0.310655
0.310655
0.310655
0.310655
0.310655
0.310654
0.310654
0.310654
0.310654
0.310653
0.310653
0.310653
0.310653
0.310652
0.310652
0.310652
0.310651
0.310651
0.31065
0.31065
0.31065
0.310649
0.310648
0.310648
0.310647
0.310647
0.310646
0.310645
0.310644
0.310643
0.310642
0.310641
0.31064
0.310639
0.310638
0.310636
0.310635
0.310633
0.310632
0.31063
0.318163
0.318163
0.318163
0.318163
0.318163
0.318163
0.318162
0.318162
0.318162
0.318162
0.318162
0.318161
0.318161
0.318161
0.318161
0.31816
0.31816
0.31816
0.31816
0.318159
0.318159
0.318158
0.318158
0.318157
0.318157
0.318156
0.318156
0.318155
0.318155
0.318154
0.318153
0.318152
0.318152
0.318151
0.31815
0.318149
0.318147
0.318146
0.318145
0.318144
0.318142
0.318141
0.325633
0.325633
0.325633
0.325633
0.325633
0.325633
0.325633
0.325633
0.325632
0.325632
0.325632
0.325632
0.325632
0.325631
0.325631
0.325631
0.325631
0.32563
0.32563
0.32563
0.32563
0.325629
0.325629
0.325628
0.325628
0.325627
0.325627
0.325626
0.325626
0.325625
0.325625
0.325624
0.325623
0.325622
0.325621
0.325621
0.32562
0.325619
0.325617
0.325616
0.325615
0.325614
0.333066
0.333066
0.333066
0.333066
0.333066
0.333066
0.333065
0.333065
0.333065
0.333065
0.333065
0.333065
0.333065
0.333064
0.333064
0.333064
0.333064
0.333064
0.333063
0.333063
0.333063
0.333062
0.333062
0.333062
0.333061
0.333061
0.333061
0.33306
0.33306
0.333059
0.333059
0.333058
0.333057
0.333057
0.333056
0.333055
0.333054
0.333053
0.333052
0.333051
0.33305
0.333049
0.340462
0.340461
0.340461
0.340461
0.340461
0.340461
0.340461
0.340461
0.340461
0.340461
0.340461
0.340461
0.34046
0.34046
0.34046
0.34046
0.34046
0.34046
0.340459
0.340459
0.340459
0.340459
0.340458
0.340458
0.340458
0.340457
0.340457
0.340457
0.340456
0.340456
0.340455
0.340455
0.340454
0.340454
0.340453
0.340453
0.340452
0.340451
0.34045
0.34045
0.340449
0.340448
0.34782
0.34782
0.34782
0.34782
0.34782
0.34782
0.34782
0.34782
0.347819
0.347819
0.347819
0.347819
0.347819
0.347819
0.347819
0.347819
0.347819
0.347818
0.347818
0.347818
0.347818
0.347818
0.347817
0.347817
0.347817
0.347817
0.347816
0.347816
0.347816
0.347816
0.347815
0.347815
0.347814
0.347814
0.347813
0.347813
0.347812
0.347812
0.347811
0.347811
0.34781
0.347809
0.355142
0.355142
0.355142
0.355142
0.355141
0.355141
0.355141
0.355141
0.355141
0.355141
0.355141
0.355141
0.355141
0.355141
0.355141
0.355141
0.355141
0.35514
0.35514
0.35514
0.35514
0.35514
0.35514
0.35514
0.355139
0.355139
0.355139
0.355139
0.355139
0.355138
0.355138
0.355138
0.355138
0.355137
0.355137
0.355137
0.355136
0.355136
0.355135
0.355135
0.355134
0.355134
0.362427
0.362427
0.362427
0.362427
0.362427
0.362426
0.362426
0.362426
0.362426
0.362426
0.362426
0.362426
0.362426
0.362426
0.362426
0.362426
0.362426
0.362426
0.362426
0.362426
0.362426
0.362426
0.362426
0.362425
0.362425
0.362425
0.362425
0.362425
0.362425
0.362425
0.362425
0.362424
0.362424
0.362424
0.362424
0.362424
0.362423
0.362423
0.362423
0.362422
0.362422
0.362422
0.369675
0.369675
0.369675
0.369675
0.369675
0.369675
0.369675
0.369675
0.369675
0.369675
0.369675
0.369675
0.369675
0.369675
0.369675
0.369675
0.369675
0.369675
0.369675
0.369675
0.369675
0.369675
0.369675
0.369675
0.369675
0.369675
0.369675
0.369675
0.369675
0.369674
0.369674
0.369674
0.369674
0.369674
0.369674
0.369674
0.369674
0.369674
0.369674
0.369674
0.369674
0.369673
0.376887
0.376887
0.376887
0.376887
0.376887
0.376888
0.376888
0.376888
0.376888
0.376888
0.376888
0.376888
0.376888
0.376888
0.376888
0.376888
0.376888
0.376888
0.376888
0.376888
0.376888
0.376888
0.376888
0.376888
0.376888
0.376888
0.376888
0.376888
0.376888
0.376888
0.376888
0.376888
0.376888
0.376888
0.376888
0.376888
0.376888
0.376888
0.376889
0.376889
0.376889
0.376889
0.384064
0.384064
0.384064
0.384064
0.384064
0.384064
0.384064
0.384064
0.384064
0.384064
0.384064
0.384064
0.384064
0.384064
0.384064
0.384064
0.384064
0.384064
0.384064
0.384064
0.384065
0.384065
0.384065
0.384065
0.384065
0.384065
0.384065
0.384065
0.384065
0.384065
0.384066
0.384066
0.384066
0.384066
0.384066
0.384067
0.384067
0.384067
0.384067
0.384067
0.384068
0.384068
0.391204
0.391204
0.391204
0.391204
0.391204
0.391204
0.391204
0.391204
0.391204
0.391205
0.391205
0.391205
0.391205
0.391205
0.391205
0.391205
0.391205
0.391205
0.391205
0.391205
0.391206
0.391206
0.391206
0.391206
0.391206
0.391206
0.391206
0.391207
0.391207
0.391207
0.391207
0.391208
0.391208
0.391208
0.391209
0.391209
0.391209
0.39121
0.39121
0.39121
0.391211
0.391211
0.398309
0.398309
0.398309
0.398309
0.398309
0.398309
0.398309
0.398309
0.398309
0.398309
0.398309
0.39831
0.39831
0.39831
0.39831
0.39831
0.39831
0.39831
0.39831
0.398311
0.398311
0.398311
0.398311
0.398311
0.398312
0.398312
0.398312
0.398312
0.398313
0.398313
0.398313
0.398314
0.398314
0.398315
0.398315
0.398315
0.398316
0.398317
0.398317
0.398318
0.398318
0.398319
0.405378
0.405378
0.405378
0.405378
0.405378
0.405378
0.405378
0.405379
0.405379
0.405379
0.405379
0.405379
0.405379
0.405379
0.405379
0.40538
0.40538
0.40538
0.40538
0.40538
0.405381
0.405381
0.405381
0.405381
0.405382
0.405382
0.405382
0.405383
0.405383
0.405383
0.405384
0.405384
0.405385
0.405385
0.405386
0.405387
0.405387
0.405388
0.405389
0.405389
0.40539
0.405391
0.412412
0.412412
0.412412
0.412412
0.412412
0.412412
0.412412
0.412413
0.412413
0.412413
0.412413
0.412413
0.412413
0.412413
0.412414
0.412414
0.412414
0.412414
0.412415
0.412415
0.412415
0.412415
0.412416
0.412416
0.412416
0.412417
0.412417
0.412418
0.412418
0.412419
0.412419
0.41242
0.41242
0.412421
0.412422
0.412422
0.412423
0.412424
0.412425
0.412426
0.412427
0.412428
0.419411
0.419411
0.419411
0.419411
0.419411
0.419411
0.419411
0.419412
0.419412
0.419412
0.419412
0.419412
0.419412
0.419413
0.419413
0.419413
0.419413
0.419413
0.419414
0.419414
0.419414
0.419415
0.419415
0.419415
0.419416
0.419416
0.419417
0.419417
0.419418
0.419418
0.419419
0.41942
0.41942
0.419421
0.419422
0.419423
0.419424
0.419425
0.419426
0.419427
0.419428
0.41943
0.426375
0.426375
0.426375
0.426375
0.426375
0.426375
0.426375
0.426376
0.426376
0.426376
0.426376
0.426376
0.426376
0.426377
0.426377
0.426377
0.426377
0.426378
0.426378
0.426378
0.426379
0.426379
0.42638
0.42638
0.426381
0.426381
0.426382
0.426382
0.426383
0.426383
0.426384
0.426385
0.426386
0.426387
0.426388
0.426389
0.42639
0.426391
0.426392
0.426393
0.426395
0.426396
0.433304
0.433304
0.433304
0.433304
0.433304
0.433304
0.433305
0.433305
0.433305
0.433305
0.433305
0.433306
0.433306
0.433306
0.433306
0.433307
0.433307
0.433307
0.433308
0.433308
0.433308
0.433309
0.433309
0.43331
0.43331
0.433311
0.433312
0.433312
0.433313
0.433314
0.433314
0.433315
0.433316
0.433317
0.433318
0.433319
0.433321
0.433322
0.433323
0.433325
0.433326
0.433328
0.440198
0.440198
0.440199
0.440199
0.440199
0.440199
0.440199
0.440199
0.4402
0.4402
0.4402
0.4402
0.440201
0.440201
0.440201
0.440202
0.440202
0.440202
0.440203
0.440203
0.440204
0.440204
0.440205
0.440205
0.440206
0.440206
0.440207
0.440208
0.440208
0.440209
0.44021
0.440211
0.440212
0.440213
0.440214
0.440216
0.440217
0.440218
0.44022
0.440222
0.440223
0.440225
0.447059
0.447059
0.447059
0.447059
0.447059
0.447059
0.44706
0.44706
0.44706
0.44706
0.44706
0.447061
0.447061
0.447061
0.447062
0.447062
0.447062
0.447063
0.447063
0.447064
0.447064
0.447065
0.447065
0.447066
0.447067
0.447067
0.447068
0.447069
0.44707
0.44707
0.447071
0.447072
0.447074
0.447075
0.447076
0.447077
0.447079
0.44708
0.447082
0.447084
0.447086
0.447088
0.453885
0.453885
0.453885
0.453885
0.453885
0.453885
0.453886
0.453886
0.453886
0.453886
0.453887
0.453887
0.453887
0.453888
0.453888
0.453888
0.453889
0.453889
0.45389
0.45389
0.453891
0.453891
0.453892
0.453892
0.453893
0.453894
0.453895
0.453896
0.453896
0.453897
0.453898
0.4539
0.453901
0.453902
0.453903
0.453905
0.453906
0.453908
0.45391
0.453912
0.453914
0.453916
0.460677
0.460677
0.460677
0.460677
0.460677
0.460677
0.460678
0.460678
0.460678
0.460678
0.460679
0.460679
0.460679
0.46068
0.46068
0.460681
0.460681
0.460681
0.460682
0.460682
0.460683
0.460684
0.460684
0.460685
0.460686
0.460687
0.460687
0.460688
0.460689
0.46069
0.460691
0.460693
0.460694
0.460695
0.460697
0.460698
0.4607
0.460702
0.460704
0.460706
0.460708
0.46071
0.467435
0.467435
0.467435
0.467435
0.467435
0.467436
0.467436
0.467436
0.467436
0.467437
0.467437
0.467437
0.467438
0.467438
0.467438
0.467439
0.467439
0.46744
0.46744
0.467441
0.467442
0.467442
0.467443
0.467444
0.467444
0.467445
0.467446
0.467447
0.467448
0.467449
0.46745
0.467452
0.467453
0.467455
0.467456
0.467458
0.46746
0.467461
0.467464
0.467466
0.467468
0.467471
0.474159
0.474159
0.474159
0.47416
0.47416
0.47416
0.47416
0.474161
0.474161
0.474161
0.474162
0.474162
0.474162
0.474163
0.474163
0.474164
0.474164
0.474165
0.474165
0.474166
0.474166
0.474167
0.474168
0.474169
0.474169
0.47417
0.474171
0.474172
0.474173
0.474175
0.474176
0.474177
0.474179
0.47418
0.474182
0.474184
0.474185
0.474187
0.47419
0.474192
0.474194
0.474197
0.48085
0.48085
0.48085
0.480851
0.480851
0.480851
0.480851
0.480852
0.480852
0.480852
0.480853
0.480853
0.480853
0.480854
0.480854
0.480855
0.480855
0.480856
0.480856
0.480857
0.480858
0.480858
0.480859
0.48086
0.480861
0.480862
0.480863
0.480864
0.480865
0.480866
0.480868
0.480869
0.48087
0.480872
0.480874
0.480876
0.480878
0.48088
0.480882
0.480884
0.480887
0.48089
0.487508
0.487508
0.487508
0.487508
0.487509
0.487509
0.487509
0.487509
0.48751
0.48751
0.48751
0.487511
0.487511
0.487512
0.487512
0.487513
0.487513
0.487514
0.487514
0.487515
0.487516
0.487516
0.487517
0.487518
0.487519
0.48752
0.487521
0.487522
0.487523
0.487525
0.487526
0.487527
0.487529
0.487531
0.487532
0.487534
0.487536
0.487539
0.487541
0.487544
0.487546
0.487549
0.494132
0.494132
0.494133
0.494133
0.494133
0.494133
0.494134
0.494134
0.494134
0.494135
0.494135
0.494135
0.494136
0.494136
0.494137
0.494137
0.494138
0.494138
0.494139
0.49414
0.49414
0.494141
0.494142
0.494143
0.494144
0.494145
0.494146
0.494147
0.494148
0.49415
0.494151
0.494153
0.494154
0.494156
0.494158
0.49416
0.494162
0.494164
0.494167
0.494169
0.494172
0.494175
0.500724
0.500724
0.500724
0.500724
0.500725
0.500725
0.500725
0.500725
0.500726
0.500726
0.500726
0.500727
0.500727
0.500728
0.500728
0.500729
0.500729
0.50073
0.500731
0.500731
0.500732
0.500733
0.500734
0.500735
0.500736
0.500737
0.500738
0.500739
0.50074
0.500742
0.500743
0.500745
0.500747
0.500748
0.50075
0.500752
0.500755
0.500757
0.500759
0.500762
0.500765
0.500768
0.507282
0.507282
0.507283
0.507283
0.507283
0.507284
0.507284
0.507284
0.507284
0.507285
0.507285
0.507286
0.507286
0.507287
0.507287
0.507288
0.507288
0.507289
0.50729
0.50729
0.507291
0.507292
0.507293
0.507294
0.507295
0.507296
0.507297
0.507298
0.5073
0.507301
0.507303
0.507304
0.507306
0.507308
0.50731
0.507312
0.507314
0.507317
0.507319
0.507322
0.507325
0.507328
0.513808
0.513808
0.513809
0.513809
0.513809
0.51381
0.51381
0.51381
0.513811
0.513811
0.513811
0.513812
0.513812
0.513813
0.513813
0.513814
0.513814
0.513815
0.513816
0.513817
0.513817
0.513818
0.513819
0.51382
0.513821
0.513822
0.513823
0.513825
0.513826
0.513827
0.513829
0.513831
0.513832
0.513834
0.513836
0.513839
0.513841
0.513843
0.513846
0.513849
0.513852
0.513855
0.520302
0.520302
0.520302
0.520303
0.520303
0.520303
0.520303
0.520304
0.520304
0.520305
0.520305
0.520305
0.520306
0.520306
0.520307
0.520307
0.520308
0.520309
0.520309
0.52031
0.520311
0.520312
0.520313
0.520314
0.520315
0.520316
0.520317
0.520319
0.52032
0.520321
0.520323
0.520325
0.520327
0.520328
0.520331
0.520333
0.520335
0.520338
0.52034
0.520343
0.520346
0.52035
0.526763
0.526763
0.526763
0.526764
0.526764
0.526764
0.526765
0.526765
0.526765
0.526766
0.526766
0.526767
0.526767
0.526768
0.526768
0.526769
0.526769
0.52677
0.526771
0.526772
0.526772
0.526773
0.526774
0.526775
0.526776
0.526777
0.526779
0.52678
0.526781
0.526783
0.526785
0.526786
0.526788
0.52679
0.526792
0.526795
0.526797
0.5268
0.526802
0.526805
0.526808
0.526812
0.533192
0.533192
0.533193
0.533193
0.533193
0.533193
0.533194
0.533194
0.533194
0.533195
0.533195
0.533196
0.533196
0.533197
0.533197
0.533198
0.533199
0.533199
0.5332
0.533201
0.533202
0.533202
0.533203
0.533204
0.533206
0.533207
0.533208
0.533209
0.533211
0.533212
0.533214
0.533216
0.533218
0.53322
0.533222
0.533224
0.533227
0.533229
0.533232
0.533235
0.533238
0.533242
0.539589
0.539589
0.53959
0.53959
0.53959
0.53959
0.539591
0.539591
0.539592
0.539592
0.539592
0.539593
0.539593
0.539594
0.539594
0.539595
0.539596
0.539596
0.539597
0.539598
0.539599
0.5396
0.539601
0.539602
0.539603
0.539604
0.539605
0.539607
0.539608
0.53961
0.539611
0.539613
0.539615
0.539617
0.539619
0.539621
0.539624
0.539627
0.53963
0.539633
0.539636
0.539639
0.545954
0.545955
0.545955
0.545955
0.545955
0.545956
0.545956
0.545956
0.545957
0.545957
0.545958
0.545958
0.545959
0.545959
0.54596
0.54596
0.545961
0.545962
0.545962
0.545963
0.545964
0.545965
0.545966
0.545967
0.545968
0.545969
0.545971
0.545972
0.545973
0.545975
0.545977
0.545978
0.54598
0.545982
0.545985
0.545987
0.54599
0.545992
0.545995
0.545998
0.546001
0.546005
0.552288
0.552288
0.552288
0.552289
0.552289
0.552289
0.55229
0.55229
0.55229
0.552291
0.552291
0.552292
0.552292
0.552293
0.552293
0.552294
0.552294
0.552295
0.552296
0.552297
0.552298
0.552299
0.5523
0.552301
0.552302
0.552303
0.552304
0.552306
0.552307
0.552309
0.55231
0.552312
0.552314
0.552316
0.552318
0.552321
0.552323
0.552326
0.552329
0.552332
0.552335
0.552339
0.55859
0.55859
0.55859
0.558591
0.558591
0.558591
0.558592
0.558592
0.558592
0.558593
0.558593
0.558594
0.558594
0.558595
0.558595
0.558596
0.558597
0.558597
0.558598
0.558599
0.5586
0.558601
0.558602
0.558603
0.558604
0.558605
0.558606
0.558608
0.558609
0.558611
0.558612
0.558614
0.558616
0.558618
0.55862
0.558623
0.558625
0.558628
0.558631
0.558634
0.558637
0.558641
0.56486
0.564861
0.564861
0.564861
0.564862
0.564862
0.564862
0.564863
0.564863
0.564863
0.564864
0.564864
0.564865
0.564865
0.564866
0.564867
0.564867
0.564868
0.564869
0.564869
0.56487
0.564871
0.564872
0.564873
0.564874
0.564876
0.564877
0.564878
0.56488
0.564881
0.564883
0.564885
0.564887
0.564889
0.564891
0.564893
0.564896
0.564899
0.564902
0.564905
0.564908
0.564912
0.5711
0.5711
0.5711
0.571101
0.571101
0.571101
0.571102
0.571102
0.571102
0.571103
0.571103
0.571104
0.571104
0.571105
0.571105
0.571106
0.571107
0.571107
0.571108
0.571109
0.57111
0.571111
0.571112
0.571113
0.571114
0.571115
0.571116
0.571118
0.571119
0.571121
0.571122
0.571124
0.571126
0.571128
0.57113
0.571133
0.571135
0.571138
0.571141
0.571144
0.571147
0.571151
0.577308
0.577308
0.577309
0.577309
0.577309
0.57731
0.57731
0.57731
0.577311
0.577311
0.577312
0.577312
0.577313
0.577313
0.577314
0.577314
0.577315
0.577316
0.577316
0.577317
0.577318
0.577319
0.57732
0.577321