/*--------------------------------*- C++ -*----------------------------------*\
| =========                 |                                                 |
| \\      /  F ield         | OpenFOAM: The Open Source CFD Toolbox           |
|  \\    /   O peration     | Version:  2406                                  |
|   \\  /    A nd           | Website:  www.openfoam.com                      |
|    \\/     M anipulation  |                                                 |
\*---------------------------------------------------------------------------*/
FoamFile
{
    version     2.0;
    format      ascii;
    arch        "LSB;label=32;scalar=64";
    class       volScalarField;
    location    "0.109";
    object      Cy;
}
// * * * * * * * * * * * * * * * * * * * * * * * * * * * * * * * * * * * * * //

dimensions      [0 1 0 0 0 0 0];

internalField   nonuniform List<scalar> 
8988
(
0.0698426
0.0695244
0.0691841
0.0688201
0.0684308
0.0680144
0.0675691
0.0670929
0.0665835
0.0660387
0.065456
0.0648329
0.0641664
0.0634536
0.0626912
0.0618758
0.0610038
0.0600711
0.0590736
0.0580067
0.0568657
0.0556453
0.0543401
0.0529442
0.0514512
0.0498545
0.0481467
0.0463202
0.0443667
0.0422775
0.040043
0.0376531
0.0350971
0.0323635
0.0294398
0.0263128
0.0229684
0.0193916
0.0155661
0.0114746
0.00709875
0.00241866
0.0698283
0.0695102
0.0691699
0.068806
0.0684168
0.0680005
0.0675553
0.0670791
0.0665698
0.0660252
0.0654426
0.0648196
0.0641532
0.0634406
0.0626783
0.0618631
0.0609913
0.0600588
0.0590615
0.0579948
0.056854
0.0556339
0.054329
0.0529333
0.0514407
0.0498442
0.0481368
0.0463107
0.0443577
0.0422688
0.0400348
0.0376454
0.03509
0.0323568
0.0294337
0.0263074
0.0229637
0.0193876
0.0155629
0.0114723
0.00709729
0.00241817
0.0697999
0.0694819
0.0691417
0.068778
0.0683889
0.0679728
0.0675278
0.0670518
0.0665427
0.0659983
0.065416
0.0647932
0.0641271
0.0634147
0.0626528
0.0618379
0.0609664
0.0600343
0.0590374
0.0579712
0.0568309
0.0556113
0.0543069
0.0529118
0.0514197
0.0498239
0.0481172
0.0462919
0.0443396
0.0422516
0.0400185
0.0376301
0.0350757
0.0323437
0.0294217
0.0262967
0.0229544
0.0193797
0.0155566
0.0114676
0.0070944
0.00241718
0.0697576
0.0694398
0.0690998
0.0687363
0.0683475
0.0679316
0.0674868
0.0670112
0.0665024
0.0659583
0.0653763
0.0647539
0.0640882
0.0633763
0.0626149
0.0618005
0.0609295
0.0599979
0.0590016
0.0579361
0.0567964
0.0555776
0.054274
0.0528797
0.0513886
0.0497938
0.0480881
0.0462638
0.0443127
0.042226
0.0399942
0.0376073
0.0350544
0.0323241
0.0294039
0.0262807
0.0229405
0.019368
0.0155471
0.0114607
0.0070901
0.00241572
0.0697017
0.0693841
0.0690445
0.0686812
0.0682927
0.0678772
0.0674328
0.0669575
0.0664491
0.0659054
0.0653239
0.064702
0.0640369
0.0633255
0.0625647
0.061751
0.0608807
0.0599499
0.0589544
0.0578896
0.0567509
0.055533
0.0542305
0.0528374
0.0513474
0.0497539
0.0480495
0.0462267
0.0442772
0.0421922
0.0399622
0.0375771
0.0350263
0.0322982
0.0293803
0.0262597
0.0229221
0.0193525
0.0155347
0.0114515
0.00708442
0.00241378
0.0696325
0.0693152
0.0689759
0.068613
0.0682249
0.0678098
0.0673658
0.066891
0.0663831
0.06584
0.0652591
0.0646378
0.0639733
0.0632626
0.0625026
0.0616896
0.0608202
0.0598903
0.0588958
0.0578322
0.0566946
0.0554779
0.0541766
0.0527849
0.0512964
0.0497045
0.0480018
0.0461808
0.0442333
0.0421503
0.0399225
0.0375398
0.0349915
0.0322661
0.0293512
0.0262336
0.0228993
0.0193332
0.0155192
0.0114401
0.00707739
0.00241138
0.0695503
0.0692334
0.0688945
0.068532
0.0681443
0.0677297
0.0672863
0.066812
0.0663048
0.0657622
0.065182
0.0645615
0.0638978
0.0631879
0.0624288
0.0616168
0.0607484
0.0598196
0.0588263
0.0577639
0.0566276
0.0554124
0.0541126
0.0527226
0.0512358
0.0496458
0.0479451
0.0461263
0.044181
0.0421005
0.0398754
0.0374955
0.0349502
0.032228
0.0293165
0.0262026
0.0228723
0.0193104
0.0155009
0.0114266
0.00706903
0.00240854
0.0694553
0.0691389
0.0688004
0.0684385
0.0680513
0.0676373
0.0671944
0.0667208
0.0662143
0.0656725
0.0650931
0.0644734
0.0638106
0.0631017
0.0623436
0.0615327
0.0606655
0.059738
0.058746
0.057685
0.0565503
0.0553367
0.0540388
0.0526506
0.0511659
0.049578
0.0478797
0.0460633
0.0441207
0.042043
0.0398209
0.0374443
0.0349025
0.032184
0.0292765
0.0261669
0.0228411
0.0192841
0.0154798
0.011411
0.00705938
0.00240525
0.069348
0.0690321
0.0686941
0.0683327
0.0679462
0.0675328
0.0670906
0.0666177
0.0661119
0.065571
0.0649925
0.0643737
0.063712
0.0630042
0.0622472
0.0614376
0.0605717
0.0596457
0.0586552
0.0575959
0.056463
0.0552512
0.0539553
0.0525693
0.0510869
0.0495014
0.0478057
0.0459922
0.0440526
0.0419781
0.0397594
0.0373865
0.0348486
0.0321343
0.0292313
0.0261264
0.0228058
0.0192543
0.0154558
0.0113934
0.00704848
0.00240153
0.0692287
0.0689132
0.0685759
0.0682151
0.0678292
0.0674165
0.0669751
0.0665031
0.0659982
0.0654582
0.0648806
0.0642629
0.0636023
0.0628958
0.0621401
0.0613319
0.0604675
0.059543
0.0585543
0.0574968
0.0563658
0.0551561
0.0538624
0.0524788
0.0509989
0.0494162
0.0477235
0.045913
0.0439767
0.0419058
0.039691
0.0373221
0.0347886
0.032079
0.029181
0.0260815
0.0227665
0.0192211
0.0154292
0.0113738
0.00703634
0.0023974
0.0690976
0.0687828
0.0684461
0.068086
0.0677008
0.0672889
0.0668483
0.0663772
0.0658732
0.0653342
0.0647578
0.0641413
0.0634819
0.0627767
0.0620224
0.0612158
0.060353
0.0594303
0.0584434
0.0573879
0.0562591
0.0550517
0.0537605
0.0523794
0.0509024
0.0493226
0.0476331
0.0458261
0.0438935
0.0418265
0.0396158
0.0372515
0.0347228
0.0320182
0.0291257
0.0260321
0.0227234
0.0191847
0.0154
0.0113522
0.00702302
0.00239286
0.0689552
0.068641
0.068305
0.0679456
0.0675613
0.0671502
0.0667106
0.0662403
0.0657374
0.0651996
0.0646243
0.0640091
0.0633511
0.0626473
0.0618946
0.0610896
0.0602286
0.0593078
0.0583229
0.0572696
0.0561431
0.0549383
0.0536496
0.0522715
0.0507975
0.049221
0.0475349
0.0457316
0.043803
0.0417403
0.0395342
0.0371747
0.0346512
0.0319522
0.0290657
0.0259784
0.0226766
0.0191452
0.0153683
0.0113288
0.00700855
0.00238793
0.0688018
0.0684883
0.068153
0.0677945
0.067411
0.0670008
0.0665621
0.066093
0.0655912
0.0650545
0.0644805
0.0638667
0.0632101
0.0625079
0.0617569
0.0609537
0.0600946
0.0591758
0.0581932
0.0571422
0.0560182
0.054816
0.0535303
0.0521552
0.0506844
0.0491115
0.0474292
0.0456299
0.0437055
0.0416474
0.0394462
0.037092
0.0345741
0.0318812
0.029001
0.0259206
0.0226261
0.0191026
0.0153341
0.0113036
0.00699295
0.00238261
0.0686377
0.068325
0.0679905
0.0676328
0.0672502
0.0668411
0.0664034
0.0659354
0.0654348
0.0648994
0.0643268
0.0637144
0.0630594
0.0623589
0.0616097
0.0608084
0.0599514
0.0590348
0.0580545
0.057006
0.0558846
0.0546853
0.0534027
0.0520308
0.0505636
0.0489944
0.0473161
0.0455211
0.0436013
0.0415481
0.0393522
0.0370036
0.0344917
0.0318051
0.0289319
0.0258588
0.0225722
0.019057
0.0152975
0.0112767
0.00697628
0.00237693
0.0684634
0.0681515
0.0678179
0.0674611
0.0670795
0.0666713
0.0662348
0.065768
0.0652687
0.0647346
0.0641635
0.0635526
0.0628993
0.0622005
0.0614532
0.060654
0.0597991
0.0588849
0.057907
0.0568612
0.0557427
0.0545465
0.0532671
0.0518987
0.0504352
0.04887
0.0471959
0.0454055
0.0434906
0.0414426
0.0392522
0.0369096
0.0344041
0.0317244
0.0288584
0.0257932
0.0225149
0.0190087
0.0152587
0.011248
0.00695857
0.0023709
0.0682793
0.0679682
0.0676355
0.0672796
0.0668991
0.066492
0.0660567
0.0655911
0.0650931
0.0645605
0.0639909
0.0633817
0.0627301
0.0620332
0.0612879
0.0604908
0.0596383
0.0587265
0.0577513
0.0567083
0.0555928
0.0543998
0.0531238
0.0517591
0.0502996
0.0487385
0.047069
0.0452834
0.0433737
0.0413312
0.0391467
0.0368103
0.0343115
0.0316391
0.0287808
0.0257238
0.0224543
0.0189575
0.0152176
0.0112178
0.00693985
0.00236452
0.0680857
0.0677755
0.0674437
0.0670888
0.0667093
0.0663034
0.0658693
0.0654051
0.0649085
0.0643774
0.0638094
0.0632019
0.0625522
0.0618573
0.0611141
0.0603193
0.0594691
0.0585599
0.0575875
0.0565475
0.0554351
0.0542455
0.0529731
0.0516123
0.0501569
0.0486003
0.0469355
0.045155
0.0432507
0.0412139
0.0390356
0.0367059
0.0342142
0.0315493
0.0286992
0.0256509
0.0223906
0.0189038
0.0151745
0.011186
0.00692017
0.00235781
0.0678829
0.0675736
0.0672429
0.0668891
0.0665107
0.066106
0.0656732
0.0652103
0.0647152
0.0641857
0.0636194
0.0630137
0.062366
0.0616731
0.0609322
0.0601397
0.0592921
0.0583856
0.057416
0.0563791
0.0552701
0.054084
0.0528154
0.0514586
0.0500076
0.0484556
0.0467958
0.0450205
0.0431219
0.0410912
0.0389194
0.0365966
0.0341124
0.0314554
0.0286137
0.0255745
0.022324
0.0188475
0.0151293
0.0111527
0.00689956
0.00235079
0.0676715
0.0673632
0.0670334
0.0666807
0.0663035
0.0659001
0.0654687
0.0650072
0.0645137
0.0639858
0.0634213
0.0628175
0.0621717
0.061481
0.0607424
0.0599523
0.0591074
0.0582037
0.0572372
0.0562035
0.0550979
0.0539155
0.0526509
0.0512984
0.0498518
0.0483047
0.04665
0.0448803
0.0429876
0.0409632
0.0387982
0.0364826
0.0340061
0.0313574
0.0285246
0.0254948
0.0222544
0.0187888
0.0150822
0.0111179
0.00687807
0.00234347
0.0674518
0.0671444
0.0668158
0.0664642
0.0660883
0.0656861
0.0652561
0.0647961
0.0643042
0.063778
0.0632153
0.0626135
0.0619698
0.0612814
0.0605451
0.0597577
0.0589155
0.0580147
0.0570514
0.056021
0.054919
0.0537405
0.0524799
0.0511318
0.0496899
0.0481478
0.0464985
0.0447346
0.042848
0.0408302
0.0386722
0.0363642
0.0338957
0.0312556
0.028432
0.025412
0.0221822
0.0187278
0.0150332
0.0110818
0.00685574
0.00233586
0.0672241
0.0669178
0.0665903
0.0662399
0.0658652
0.0654645
0.0650358
0.0645774
0.0640872
0.0635628
0.063002
0.0624022
0.0617607
0.0610746
0.0603408
0.059556
0.0587166
0.0578189
0.0568588
0.0558319
0.0547337
0.0535591
0.0523028
0.0509592
0.0495222
0.0479853
0.0463416
0.0445836
0.0427034
0.0406924
0.0385417
0.0362415
0.0337813
0.0311501
0.028336
0.0253263
0.0221073
0.0186646
0.0149825
0.0110444
0.0068326
0.00232797
0.066989
0.0666838
0.0663573
0.0660082
0.0656348
0.0652355
0.0648083
0.0643515
0.063863
0.0633405
0.0627816
0.0621839
0.0615446
0.060861
0.0601297
0.0593477
0.0585112
0.0576167
0.0566599
0.0556366
0.0545422
0.0533717
0.0521199
0.050781
0.049349
0.0478175
0.0461795
0.0444276
0.042554
0.0405501
0.0384069
0.0361147
0.0336631
0.0310411
0.0282369
0.0252377
0.02203
0.0185993
0.0149301
0.0110058
0.0068087
0.00231983
0.0667467
0.0664426
0.0661173
0.0657695
0.0653974
0.0649995
0.064574
0.0641188
0.063632
0.0631114
0.0625545
0.061959
0.0613221
0.0606408
0.0599123
0.059133
0.0582996
0.0574083
0.056455
0.0554354
0.054345
0.0531787
0.0519314
0.0505973
0.0491705
0.0476445
0.0460125
0.044267
0.0424001
0.0404034
0.038268
0.0359841
0.0335414
0.0309289
0.0281348
0.0251464
0.0219503
0.018532
0.0148761
0.010966
0.00678407
0.00231144
0.0664977
0.0661947
0.0658707
0.0655241
0.0651535
0.0647571
0.0643331
0.0638796
0.0633947
0.062876
0.0623212
0.0617279
0.0610933
0.0604146
0.0596888
0.0589125
0.0580822
0.0571942
0.0562444
0.0552286
0.0541422
0.0529803
0.0517377
0.0504086
0.0489871
0.0474668
0.0458408
0.0441018
0.0422419
0.0402527
0.0381252
0.0358498
0.0334163
0.0308135
0.0280298
0.0250526
0.0218684
0.0184629
0.0148206
0.0109251
0.00675876
0.00230282
0.0662424
0.0659406
0.0656178
0.0652726
0.0649034
0.0645085
0.0640861
0.0636344
0.0631513
0.0626346
0.0620819
0.0614909
0.0608588
0.0601827
0.0594596
0.0586863
0.0578592
0.0569746
0.0560285
0.0550166
0.0539344
0.0527769
0.051539
0.0502151
0.048799
0.0472846
0.0456649
0.0439325
0.0420798
0.0400982
0.0379789
0.0357122
0.033288
0.0306952
0.0279222
0.0249564
0.0217845
0.018392
0.0147637
0.0108831
0.00673282
0.00229397
0.0659812
0.0656806
0.0653591
0.0650152
0.0646474
0.0642541
0.0638334
0.0633834
0.0629022
0.0623876
0.0618371
0.0612484
0.0606188
0.0599454
0.0592251
0.0584549
0.057631
0.0567499
0.0558075
0.0547996
0.0537217
0.0525688
0.0513358
0.050017
0.0486066
0.0470981
0.0454848
0.0437593
0.0419138
0.0399401
0.0378291
0.0355714
0.0331567
0.0305742
0.0278121
0.024858
0.0216986
0.0183195
0.0147055
0.0108402
0.00670626
0.00228493
0.0657145
0.065415
0.0650948
0.0647523
0.0643861
0.0639943
0.0635753
0.0631272
0.0626479
0.0621354
0.0615871
0.0610008
0.0603737
0.059703
0.0589857
0.0582185
0.057398
0.0565205
0.0555819
0.0545781
0.0535045
0.0523563
0.0511282
0.0498148
0.0484101
0.0469077
0.0453009
0.0435824
0.0417444
0.0397786
0.0376762
0.0354276
0.0330227
0.0304506
0.0276997
0.0247575
0.0216108
0.0182454
0.014646
0.0107964
0.00667915
0.00227569
0.0654426
0.0651444
0.0648255
0.0644844
0.0641197
0.0637295
0.0633123
0.062866
0.0623887
0.0618783
0.0613323
0.0607484
0.0601239
0.059456
0.0587417
0.0579777
0.0571605
0.0562866
0.055352
0.0543523
0.0532832
0.0521397
0.0509167
0.0496087
0.0482098
0.0467136
0.0451135
0.0434021
0.0415717
0.039614
0.0375203
0.035281
0.032886
0.0303246
0.0275851
0.0246551
0.0215214
0.0181699
0.0145854
0.0107517
0.00665152
0.00226627
0.0651659
0.064869
0.0645515
0.0642119
0.0638486
0.0634602
0.0630447
0.0626003
0.062125
0.0616167
0.0610731
0.0604916
0.0598698
0.0592047
0.0584934
0.0577326
0.0569189
0.0560487
0.055118
0.0541225
0.0530579
0.0519193
0.0507015
0.049399
0.048006
0.0465162
0.0449228
0.0432186
0.0413959
0.0394466
0.0373617
0.0351319
0.032747
0.0301964
0.0274684
0.0245509
0.0214304
0.0180931
0.0145238
0.0107063
0.0066234
0.00225669
0.064885
0.0645893
0.0642732
0.063935
0.0635733
0.0631865
0.0627728
0.0623304
0.0618571
0.061351
0.0608097
0.0602308
0.0596116
0.0589494
0.0582411
0.0574837
0.0566735
0.055807
0.0548803
0.0538892
0.0528291
0.0516954
0.0504829
0.049186
0.047799
0.0463156
0.0447291
0.0430322
0.0412174
0.0392765
0.0372006
0.0349804
0.0326058
0.0300662
0.02735
0.024445
0.021338
0.0180151
0.0144611
0.0106601
0.00659484
0.00224696
0.0646
0.0643057
0.0639909
0.0636542
0.0632941
0.062909
0.0624971
0.0620566
0.0615855
0.0610816
0.0605427
0.0599663
0.0593498
0.0586905
0.0579854
0.0572312
0.0564246
0.0555619
0.0546393
0.0536525
0.0525971
0.0514684
0.0502611
0.04897
0.0475891
0.0461122
0.0445326
0.0428432
0.0410364
0.039104
0.0370372
0.0348267
0.0324626
0.0299341
0.0272299
0.0243376
0.0212443
0.017936
0.0143976
0.0106133
0.00656588
0.00223709
0.0643114
0.0640184
0.063705
0.0633698
0.0630114
0.062628
0.0622179
0.0617794
0.0613104
0.0608087
0.0602722
0.0596984
0.0590847
0.0584283
0.0577263
0.0569755
0.0561725
0.0553137
0.0543952
0.0534128
0.0523622
0.0512385
0.0500366
0.0487513
0.0473765
0.0459062
0.0443337
0.0426519
0.0408531
0.0389293
0.0368718
0.0346712
0.0323176
0.0298004
0.0271083
0.0242289
0.0211494
0.0178558
0.0143333
0.0105659
0.00653655
0.0022271
0.0640196
0.0637279
0.063416
0.0630823
0.0627255
0.0623438
0.0619356
0.0614991
0.0610322
0.0605328
0.0599987
0.0594275
0.0588166
0.0581632
0.0574644
0.056717
0.0559177
0.0550627
0.0541484
0.0531705
0.0521246
0.051006
0.0498096
0.04853
0.0471616
0.0456979
0.0441325
0.0424583
0.0406677
0.0387527
0.0367044
0.0345139
0.032171
0.0296652
0.0269853
0.024119
0.0210535
0.0177748
0.0142683
0.0105179
0.00650689
0.00221699
0.0637249
0.0634346
0.0631241
0.062792
0.0624368
0.0620569
0.0616506
0.061216
0.0607513
0.0602542
0.0597226
0.059154
0.0585459
0.0578955
0.0571999
0.056456
0.0556603
0.0548093
0.0538992
0.0529257
0.0518847
0.0507712
0.0495803
0.0483067
0.0469445
0.0454876
0.0439294
0.0422629
0.0404805
0.0385743
0.0365355
0.034355
0.0320229
0.0295287
0.026861
0.024008
0.0209566
0.017693
0.0142026
0.0104695
0.00647694
0.00220679
0.0634278
0.0631388
0.0628297
0.0624991
0.0621456
0.0617675
0.0613631
0.0609305
0.060468
0.0599732
0.0594441
0.0588781
0.0582729
0.0576255
0.0569332
0.0561927
0.0554007
0.0545537
0.0536478
0.0526789
0.0516427
0.0505344
0.0493491
0.0480814
0.0467256
0.0452755
0.0437245
0.0420658
0.0402918
0.0383944
0.0363651
0.0341948
0.0318736
0.029391
0.0267358
0.023896
0.0208588
0.0176105
0.0141364
0.0104207
0.00644673
0.0021965
0.0631284
0.0628408
0.0625332
0.0622042
0.0618523
0.061476
0.0610735
0.060643
0.0601826
0.0596902
0.0591635
0.0586003
0.0579979
0.0573536
0.0566645
0.0559275
0.0551393
0.0542963
0.0533946
0.0524303
0.051399
0.050296
0.0491162
0.0478545
0.0465051
0.0450618
0.0435182
0.0418673
0.0401016
0.0382132
0.0361935
0.0340334
0.0317231
0.0292523
0.0266096
0.0237832
0.0207604
0.0175274
0.0140697
0.0103715
0.00641631
0.00218613
0.0628273
0.0625411
0.0622349
0.0619075
0.0615573
0.0611828
0.0607822
0.0603538
0.0598955
0.0594055
0.0588813
0.0583208
0.0577212
0.05708
0.0563942
0.0556607
0.0548763
0.0540373
0.05314
0.0521803
0.0511538
0.0500561
0.048882
0.0476262
0.0462832
0.0448469
0.0433106
0.0416676
0.0399104
0.0380309
0.0360209
0.0338711
0.0315718
0.0291127
0.0264827
0.0236698
0.0206614
0.0174438
0.0140025
0.0103221
0.0063857
0.0021757
0.0625248
0.0622399
0.0619352
0.0616094
0.0612608
0.0608881
0.0604895
0.0600631
0.0596071
0.0591194
0.0585978
0.0580399
0.0574433
0.0568051
0.0561226
0.0553927
0.054612
0.053777
0.052884
0.051929
0.0509075
0.049815
0.0486465
0.0473969
0.0460603
0.0446309
0.043102
0.0414669
0.0397182
0.0378478
0.0358474
0.033708
0.0314198
0.0289725
0.0263551
0.0235558
0.0205619
0.0173598
0.0139351
0.0102723
0.00635495
0.00216522
0.0622211
0.0619376
0.0616344
0.0613101
0.0609633
0.0605924
0.0601957
0.0597714
0.0593176
0.0588322
0.0583132
0.057758
0.0571642
0.0565292
0.05585
0.0551236
0.0543467
0.0535158
0.0526272
0.0516767
0.0506602
0.049573
0.0484103
0.0471667
0.0458366
0.0444141
0.0428927
0.0412655
0.0395252
0.037664
0.0356733
0.0335442
0.0312672
0.0288318
0.0262271
0.0234414
0.020462
0.0172755
0.0138674
0.0102224
0.00632408
0.00215471
0.0619166
0.0616345
0.0613328
0.0610101
0.060665
0.0602959
0.0599011
0.0594789
0.0590273
0.0585443
0.0580278
0.0574754
0.0568845
0.0562526
0.0555767
0.0548539
0.0540808
0.053254
0.0523696
0.0514239
0.0504123
0.0493304
0.0481734
0.0469359
0.0456123
0.0441968
0.0426828
0.0410636
0.0393318
0.0374797
0.0354987
0.0333801
0.0311142
0.0286907
0.0260988
0.0233267
0.0203619
0.0171909
0.0137996
0.0101724
0.00629314
0.00214416
0.0616117
0.0613309
0.0610307
0.0607096
0.0603662
0.0599989
0.0596061
0.0591859
0.0587366
0.058256
0.057742
0.0571923
0.0566044
0.0559755
0.055303
0.0545837
0.0538144
0.0529917
0.0521117
0.0511706
0.050164
0.0490875
0.0479361
0.0467047
0.0453877
0.0439791
0.0424726
0.0408614
0.0391381
0.0372951
0.0353239
0.0332157
0.0309609
0.0285494
0.0259703
0.0232118
0.0202616
0.0171063
0.0137316
0.0101223
0.00626214
0.0021336
0.0613066
0.0610272
0.0607285
0.060409
0.0600673
0.0597018
0.0593109
0.0588929
0.0584457
0.0579675
0.0574561
0.0569091
0.0563241
0.0556984
0.0550292
0.0543134
0.053548
0.0527293
0.0518537
0.0509172
0.0499156
0.0488444
0.0476987
0.0464734
0.0451629
0.0437613
0.0422623
0.040659
0.0389443
0.0371104
0.035149
0.0330512
0.0308076
0.028408
0.0258417
0.0230969
0.0201613
0.0170216
0.0136636
0.0100722
0.00623113
0.00212304
0.0610016
0.0607237
0.0604264
0.0601085
0.0597685
0.0594048
0.0590159
0.0585999
0.058155
0.0576792
0.0571703
0.056626
0.0560439
0.0554213
0.0547554
0.0540433
0.0532816
0.052467
0.0515958
0.0506639
0.0496673
0.0486015
0.0474615
0.0462423
0.0449383
0.0435436
0.0420521
0.0404568
0.0387506
0.0369258
0.0349741
0.0328868
0.0306544
0.0282667
0.0257131
0.022982
0.020061
0.0169369
0.0135956
0.0100221
0.00620014
0.00211248
0.0606971
0.0604206
0.0601248
0.0598085
0.0594702
0.0591083
0.0587213
0.0583074
0.0578648
0.0573913
0.0568849
0.0563434
0.0557642
0.0551447
0.0544821
0.0537735
0.0530157
0.0522051
0.0513382
0.0504111
0.0494194
0.0483589
0.0472246
0.0460115
0.044714
0.0433263
0.0418422
0.0402548
0.0385572
0.0367415
0.0347996
0.0327227
0.0305014
0.0281257
0.0255848
0.0228673
0.0199608
0.0168524
0.0135278
0.00997208
0.00616919
0.00210193
0.0603934
0.0601182
0.059824
0.0595092
0.0591726
0.0588125
0.0584275
0.0580157
0.0575752
0.0571041
0.0566003
0.0560614
0.0554851
0.0548687
0.0542095
0.0535045
0.0527504
0.0519439
0.0510813
0.0501588
0.0491721
0.0481169
0.0469883
0.0457812
0.0444902
0.0431095
0.0416328
0.0400534
0.0383642
0.0365576
0.0346254
0.0325589
0.0303487
0.0279849
0.0254568
0.0227528
0.019861
0.016768
0.0134601
0.00992218
0.00613832
0.00209141
0.0600907
0.0598169
0.0595241
0.0592109
0.058876
0.0585178
0.0581346
0.0577249
0.0572866
0.0568179
0.0563166
0.0557804
0.055207
0.0545937
0.0539378
0.0532363
0.052486
0.0516835
0.0508253
0.0499074
0.0489257
0.0478757
0.0467528
0.0455517
0.0442672
0.0428934
0.0414241
0.0398527
0.0381719
0.0363744
0.0344519
0.0323957
0.0301966
0.0278446
0.0253292
0.0226388
0.0197614
0.016684
0.0133926
0.00987245
0.00610755
0.00208093
0.0597893
0.0595169
0.0592256
0.058914
0.0585807
0.0582243
0.0578431
0.0574353
0.0569993
0.0565329
0.0560341
0.0555007
0.0549301
0.0543199
0.0536673
0.0529693
0.0522227
0.0514243
0.0505704
0.0496571
0.0486803
0.0476356
0.0465183
0.0453233
0.0440452
0.0426783
0.0412163
0.0396528
0.0379805
0.036192
0.0342791
0.0322332
0.0300452
0.027705
0.0252021
0.0225253
0.0196623
0.0166003
0.0133254
0.00982293
0.00607692
0.00207049
0.0594895
0.0592185
0.0589286
0.0586185
0.0582869
0.0579323
0.057553
0.0571473
0.0567135
0.0562494
0.0557532
0.0552224
0.0546547
0.0540475
0.0533982
0.0527037
0.0519609
0.0511664
0.0503168
0.0494081
0.0484362
0.0473967
0.046285
0.045096
0.0438243
0.0424643
0.0410097
0.0394539
0.03779
0.0360105
0.0341072
0.0320716
0.0298945
0.0275661
0.0250757
0.0224123
0.0195637
0.0165171
0.0132586
0.00977367
0.00604645
0.00206011
0.0591915
0.0589218
0.0586334
0.0583249
0.057995
0.0576421
0.0572647
0.0568611
0.0564294
0.0559677
0.0554739
0.0549458
0.0543809
0.0537768
0.0531307
0.0524397
0.0517006
0.0509102
0.0500648
0.0491606
0.0481936
0.0471593
0.0460532
0.0448701
0.0436048
0.0422516
0.0408043
0.0392563
0.0376008
0.0358301
0.0339364
0.031911
0.0297448
0.027428
0.0249501
0.0223
0.0194657
0.0164343
0.0131922
0.00972472
0.00601616
0.00204979
0.0588956
0.0586273
0.0583403
0.0580334
0.0577051
0.057354
0.0569785
0.0565769
0.0561473
0.0556879
0.0551966
0.0546711
0.0541091
0.053508
0.0528651
0.0521775
0.0514422
0.0506557
0.0498145
0.0489148
0.0479527
0.0469236
0.045823
0.0446458
0.0433869
0.0420404
0.0406003
0.0390601
0.0374128
0.035651
0.0337667
0.0317515
0.0295961
0.0272909
0.0248254
0.0221886
0.0193684
0.0163522
0.0131263
0.0096761
0.00598609
0.00203955
0.0586021
0.0583351
0.0580495
0.0577441
0.0574175
0.0570681
0.0566945
0.0562949
0.0558675
0.0554104
0.0549215
0.0543986
0.0538394
0.0532413
0.0526016
0.0519175
0.0511858
0.0504032
0.0495662
0.048671
0.0477136
0.0466897
0.0455946
0.0444233
0.0431706
0.0418308
0.0403979
0.0388654
0.0372263
0.0354733
0.0335984
0.0315932
0.0294486
0.0271549
0.0247017
0.022078
0.0192719
0.0162707
0.0130608
0.00962788
0.00595625
0.00202938
0.0583111
0.0580454
0.0577613
0.0574574
0.0571324
0.0567847
0.056413
0.0560153
0.0555901
0.0551352
0.0546488
0.0541285
0.053572
0.0529769
0.0523404
0.0516597
0.0509316
0.0501529
0.0493201
0.0484294
0.0474767
0.0464579
0.0453682
0.0442027
0.0429562
0.0416231
0.0401973
0.0386724
0.0370415
0.0352972
0.0334316
0.0314363
0.0293023
0.02702
0.024579
0.0219683
0.0191762
0.0161899
0.012996
0.00958007
0.00592668
0.0020193
0.0580229
0.0577585
0.0574758
0.0571734
0.05685
0.0565041
0.0561341
0.0557385
0.0553153
0.0548627
0.0543787
0.053861
0.0533073
0.0527151
0.0520817
0.0514043
0.0506799
0.049905
0.0490763
0.04819
0.0472421
0.0462282
0.0451439
0.0439842
0.0427439
0.0414174
0.0399986
0.0384813
0.0368584
0.0351227
0.0332663
0.0312809
0.0291575
0.0268865
0.0244575
0.0218598
0.0190814
0.0161099
0.0129318
0.00953272
0.00589738
0.00200932
0.0577377
0.0574746
0.0571933
0.0568924
0.0565706
0.0562264
0.0558582
0.0554645
0.0550434
0.0545931
0.0541114
0.0535962
0.0530453
0.052456
0.0518257
0.0511517
0.0504308
0.0496597
0.0488351
0.0479531
0.0470099
0.046001
0.044922
0.0437681
0.0425338
0.0412138
0.039802
0.0382921
0.0366772
0.0349501
0.0331028
0.0311272
0.0290142
0.0267543
0.0243373
0.0217523
0.0189876
0.0160307
0.0128682
0.00948587
0.0058684
0.00199945
0.0574557
0.057194
0.056914
0.0566146
0.0562943
0.0559518
0.0555854
0.0551937
0.0547746
0.0543265
0.0538471
0.0533345
0.0527862
0.0521998
0.0515726
0.0509019
0.0501845
0.0494172
0.0485966
0.047719
0.0467803
0.0457764
0.0447027
0.0435543
0.0423261
0.0410126
0.0396077
0.0381051
0.0364981
0.0347794
0.0329412
0.0309752
0.0288725
0.0266237
0.0242185
0.0216461
0.0188949
0.0159524
0.0128054
0.00943954
0.00583974
0.00198968
0.0571772
0.0569167
0.0566381
0.0563401
0.0560214
0.0556805
0.055316
0.0549261
0.0545091
0.0540631
0.0535861
0.0530759
0.0525303
0.0519467
0.0513226
0.0506551
0.0499412
0.0491777
0.048361
0.0474876
0.0465535
0.0455545
0.044486
0.0433432
0.0421209
0.0408137
0.0394157
0.0379204
0.0363212
0.0346108
0.0327815
0.030825
0.0287325
0.0264946
0.0241011
0.0215412
0.0188033
0.0158751
0.0127433
0.00939378
0.00581143
0.00198004
0.0569023
0.056643
0.0563657
0.0560692
0.055752
0.0554128
0.05505
0.054662
0.054247
0.0538031
0.0533284
0.0528207
0.0522777
0.051697
0.0510758
0.0504115
0.0497011
0.0489412
0.0481285
0.0472593
0.0463297
0.0453354
0.0442721
0.0431348
0.0419184
0.0406175
0.0392261
0.0377381
0.0361465
0.0344444
0.0326239
0.0306768
0.0285944
0.0263672
0.0239852
0.0214376
0.0187129
0.0157987
0.012682
0.00934861
0.00578349
0.00197052
0.0566312
0.0563731
0.0560972
0.055802
0.0554864
0.0551488
0.0547877
0.0544015
0.0539885
0.0535468
0.0530743
0.052569
0.0520286
0.0514506
0.0508325
0.0501713
0.0494642
0.048708
0.0478992
0.0470341
0.0461089
0.0451194
0.0440611
0.0429292
0.0417187
0.040424
0.0390392
0.0375582
0.0359743
0.0342802
0.0324684
0.0305306
0.0284581
0.0262416
0.0238709
0.0213354
0.0186237
0.0157234
0.0126216
0.00930407
0.00575593
0.00196113
0.056364
0.0561072
0.0558325
0.0555388
0.0552246
0.0548886
0.0545292
0.0541449
0.0537338
0.0532942
0.052824
0.0523211
0.0517832
0.0512079
0.0505927
0.0499347
0.0492309
0.0484782
0.0476732
0.0468122
0.0458914
0.0449066
0.0438533
0.0427267
0.0415219
0.0402333
0.0388551
0.0373811
0.0358046
0.0341185
0.0323153
0.0303866
0.0283239
0.0261178
0.0237583
0.0212348
0.0185358
0.0156493
0.012562
0.00926018
0.00572878
0.00195188
0.056101
0.0558454
0.055572
0.0552796
0.0549669
0.0546325
0.0542748
0.0538922
0.0534831
0.0530455
0.0525775
0.0520769
0.0515416
0.050969
0.0503566
0.0497017
0.0490012
0.048252
0.0474508
0.0465938
0.0456773
0.044697
0.0436486
0.0425273
0.0413281
0.0400455
0.0386738
0.0372066
0.0356375
0.0339593
0.0321645
0.0302448
0.0281917
0.0259959
0.0236474
0.0211357
0.0184494
0.0155763
0.0125034
0.00921697
0.00570205
0.00194277
0.0558423
0.0555879
0.0553158
0.0550247
0.0547135
0.0543806
0.0540245
0.0536437
0.0532365
0.0528009
0.052335
0.0518368
0.0513039
0.050734
0.0501244
0.0494725
0.0487752
0.0480295
0.047232
0.0463789
0.0454666
0.0444909
0.0434473
0.0423312
0.0411375
0.0398609
0.0384954
0.0370351
0.0354732
0.0338027
0.0320161
0.0301054
0.0280617
0.025876
0.0235384
0.0210382
0.0183643
0.0155044
0.0124458
0.00917447
0.00567575
0.00193381
0.0555881
0.0553348
0.0550639
0.0547742
0.0544644
0.054133
0.0537786
0.0533995
0.0529941
0.0525605
0.0520967
0.0516008
0.0510703
0.050503
0.0498962
0.0492472
0.0485532
0.0478108
0.0470169
0.0461678
0.0452596
0.0442884
0.0432495
0.0421385
0.0409503
0.0396794
0.0383202
0.0368665
0.0353117
0.0336488
0.0318704
0.0299683
0.027934
0.0257582
0.0234312
0.0209425
0.0182807
0.0154338
0.0123891
0.0091327
0.00564991
0.00192501
0.0553384
0.0550863
0.0548166
0.0545282
0.0542198
0.0538899
0.053537
0.0531597
0.0527561
0.0523244
0.0518628
0.051369
0.050841
0.0502762
0.0496721
0.0490261
0.0483351
0.0475961
0.0468058
0.0459605
0.0450564
0.0440895
0.0430553
0.0419493
0.0407664
0.0395012
0.0381481
0.0367009
0.0351531
0.0334977
0.0317273
0.0298337
0.0278085
0.0256425
0.023326
0.0208484
0.0181986
0.0153645
0.0123335
0.00909168
0.00562454
0.00191636
0.0550935
0.0548425
0.054574
0.0542869
0.0539798
0.0536514
0.0533001
0.0529244
0.0525226
0.0520929
0.0516333
0.0511417
0.050616
0.0500537
0.0494523
0.0488091
0.0481212
0.0473855
0.0465986
0.0457571
0.044857
0.0438943
0.0428648
0.0417636
0.0405859
0.0393264
0.0379793
0.0365385
0.0349975
0.0333495
0.0315868
0.0297017
0.0276855
0.0255291
0.0232228
0.0207561
0.018118
0.0152965
0.0122789
0.00905145
0.00559965
0.00190788
0.0548535
0.0546036
0.0543363
0.0540504
0.0537446
0.0534176
0.0530679
0.0526939
0.0522938
0.0518659
0.0514083
0.0509189
0.0503954
0.0498356
0.0492368
0.0485965
0.0479116
0.047179
0.0463956
0.0455577
0.0446616
0.0437031
0.042678
0.0415817
0.0404091
0.039155
0.0378138
0.0363793
0.0348451
0.0332042
0.0314492
0.0295723
0.0275648
0.0254178
0.0231216
0.0206657
0.0180391
0.0152299
0.0122254
0.00901201
0.00557525
0.00189957
0.0546184
0.0543696
0.0541034
0.0538188
0.0535144
0.0531888
0.0528405
0.0524681
0.0520697
0.0516437
0.051188
0.0507007
0.0501795
0.0496221
0.0490259
0.0483882
0.0477063
0.0469769
0.0461968
0.0453625
0.0444702
0.0435158
0.0424951
0.0414035
0.040236
0.0389873
0.0376518
0.0362234
0.0346958
0.0330619
0.0313145
0.0294456
0.0274467
0.0253089
0.0230225
0.0205772
0.0179618
0.0151646
0.012173
0.0089734
0.00555136
0.00189143
0.0543885
0.0541407
0.0538757
0.0535922
0.0532891
0.0529648
0.0526181
0.0522472
0.0518505
0.0514263
0.0509725
0.0504873
0.0499682
0.0494132
0.0488195
0.0481845
0.0475054
0.0467791
0.0460023
0.0451715
0.044283
0.0433326
0.0423162
0.0412292
0.0400666
0.0388231
0.0374932
0.0360709
0.0345497
0.0329227
0.0311826
0.0293216
0.0273312
0.0252024
0.0229256
0.0204905
0.0178862
0.0151008
0.0121218
0.00893562
0.00552799
0.00188347
0.0541638
0.053917
0.0536531
0.0533708
0.0530689
0.052746
0.0524006
0.0520313
0.0516363
0.0512138
0.0507619
0.0502786
0.0497618
0.049209
0.0486177
0.0479854
0.0473091
0.0465858
0.0458122
0.0449849
0.0441
0.0431536
0.0421414
0.0410588
0.039901
0.0386627
0.0373383
0.0359219
0.0344069
0.0327867
0.0310538
0.0292004
0.0272182
0.0250982
0.0228309
0.0204059
0.0178123
0.0150384
0.0120717
0.0088987
0.00550515
0.00187569
0.0539443
0.0536986
0.0534357
0.0531546
0.0528539
0.0525323
0.0521884
0.0518205
0.0514271
0.0510063
0.0505563
0.050075
0.0495602
0.0490096
0.0484208
0.047791
0.0471175
0.0463971
0.0456266
0.0448026
0.0439213
0.0429788
0.0419707
0.0408925
0.0397394
0.0385061
0.0371871
0.0357763
0.0342675
0.0326539
0.030928
0.0290821
0.027108
0.0249966
0.0227384
0.0203232
0.0177401
0.0149775
0.0120228
0.00886265
0.00548285
0.00186809
0.0537303
0.0534855
0.0532237
0.0529437
0.0526442
0.0523239
0.0519813
0.0516149
0.051223
0.0508039
0.0503557
0.0498763
0.0493636
0.0488152
0.0482287
0.0476014
0.0469305
0.046213
0.0454456
0.0446249
0.0437471
0.0428082
0.0418042
0.0407303
0.0395817
0.0383533
0.0370395
0.0356344