/*--------------------------------*- C++ -*----------------------------------*\
| =========                 |                                                 |
| \\      /  F ield         | OpenFOAM: The Open Source CFD Toolbox           |
|  \\    /   O peration     | Version:  2406                                  |
|   \\  /    A nd           | Website:  www.openfoam.com                      |
|    \\/     M anipulation  |                                                 |
\*---------------------------------------------------------------------------*/
FoamFile
{
    version     2.0;
    format      ascii;
    arch        "LSB;label=32;scalar=64";
    class       volVectorField;
    location    "0.109";
    object      ddt0(rhoU);
}
// * * * * * * * * * * * * * * * * * * * * * * * * * * * * * * * * * * * * * //

dimensions      [1 -2 -2 0 0 0 0];

internalField   nonuniform List<vector> 
8988
(
(-29.5458 -59.9415 0)
(116.723 -78.5516 0)
(-67.553 -85.6735 0)
(-66.62 211.389 0)
(-22.3876 45.2041 0)
(25.9321 -94.0938 0)
(57.1549 -67.5797 0)
(-7.31759 -25.3505 0)
(1.77934 66.8146 0)
(-31.8518 39.8131 0)
(10.5095 -14.8664 0)
(8.43197 -6.34968 0)
(7.07324 19.0688 0)
(4.59174 26.7196 0)
(0.451948 22.6174 0)
(4.01894 15.3748 0)
(3.64399 11.1723 0)
(2.54698 12.8045 0)
(1.23384 14.3528 0)
(0.715029 14.5377 0)
(0.485862 14.4334 0)
(0.970641 16.7716 0)
(-0.322276 17.3771 0)
(-0.323488 17.3245 0)
(-1.29023 18.7551 0)
(-2.4447 20.2702 0)
(-2.90021 20.8246 0)
(-2.41557 21.1054 0)
(-2.18105 21.9227 0)
(-2.76749 23.1693 0)
(-3.20101 24.1528 0)
(-3.20358 23.7367 0)
(-2.69332 22.834 0)
(-2.07954 22.3846 0)
(-1.70358 21.9791 0)
(-1.34956 20.9002 0)
(-0.823308 19.4616 0)
(-0.32032 17.9567 0)
(-0.221044 14.7247 0)
(0.120507 9.07815 0)
(1.84802 6.89814 0)
(5.0577 6.39204 0)
(-26.4295 -246.441 0)
(117.393 -515.421 0)
(-52.5859 -178.602 0)
(-29.4848 603.489 0)
(-275.015 68.5109 0)
(414.029 -411.05 0)
(20.5965 -157.789 0)
(-185.988 411.177 0)
(-75.7334 55.931 0)
(119.114 -161.315 0)
(18.1071 -81.9023 0)
(-40.2649 96.7919 0)
(-15.3752 35.6447 0)
(8.19491 -27.4244 0)
(-0.951331 8.35547 0)
(-6.96576 11.8442 0)
(-5.89372 3.19189 0)
(-6.85728 4.42414 0)
(-5.69133 5.86684 0)
(-5.29651 6.80299 0)
(-5.72903 10.8579 0)
(-5.42675 12.985 0)
(-4.58847 12.9396 0)
(-3.09682 12.6406 0)
(-2.11229 12.3443 0)
(-2.19722 14.7292 0)
(-3.01774 17.5946 0)
(-2.3846 12.8335 0)
(-0.313297 9.92894 0)
(-2.49282 11.553 0)
(-5.96587 15.5417 0)
(-6.70542 13.4706 0)
(-5.11588 10.5997 0)
(-3.80008 10.3205 0)
(-2.75677 11.8052 0)
(-1.55258 12.7538 0)
(0.0446089 13.058 0)
(1.55342 12.1528 0)
(2.71582 9.47965 0)
(4.15881 7.49012 0)
(6.44962 4.62361 0)
(5.5982 2.71467 0)
(-422.172 -405.243 0)
(309.489 -56.6833 0)
(409.996 -223.639 0)
(-112.737 -528.637 0)
(-210.658 565.422 0)
(-303.087 853.271 0)
(301.511 -631.559 0)
(118.314 -559.138 0)
(-18.1819 332.735 0)
(-194.702 282.299 0)
(82.8446 -149.474 0)
(27.7903 -126.382 0)
(-19.9569 80.0345 0)
(-8.6696 1.56529 0)
(4.67032 -17.7044 0)
(-3.21339 -5.61273 0)
(-5.50441 -2.21641 0)
(-5.80006 -5.95066 0)
(-6.28502 -7.15806 0)
(-6.95312 -6.26151 0)
(-7.76334 -5.15917 0)
(-7.29999 -4.57066 0)
(-5.60564 -5.79819 0)
(-3.70879 -7.97181 0)
(-3.10266 -8.46413 0)
(-4.88159 -6.78548 0)
(-6.77373 -5.72098 0)
(-5.72791 -7.38818 0)
(-2.63283 -8.34027 0)
(-0.558222 -6.8227 0)
(-2.0319 -6.03875 0)
(-0.443717 -2.70105 0)
(-0.349779 -8.81551 0)
(1.49347 -11.4241 0)
(2.6257 -11.7823 0)
(3.73017 -12.2644 0)
(4.96575 -13.6008 0)
(6.30543 -13.8199 0)
(7.34764 -12.2628 0)
(7.59329 -9.80716 0)
(8.17107 -7.8452 0)
(5.70116 0.0640029 0)
(-395.27 -478.152 0)
(284.71 -115.758 0)
(109.407 -154.075 0)
(-13.7901 -897.643 0)
(-116.182 785.547 0)
(-246.124 1141.48 0)
(-87.672 -532.122 0)
(405.21 -947.991 0)
(100.146 90.7092 0)
(-353.316 686.879 0)
(-7.72677 -139.526 0)
(91.1646 -291.661 0)
(22.1095 57.3202 0)
(-60.619 42.2469 0)
(0.314507 -30.7907 0)
(-10.1156 -28.6045 0)
(-15.1808 -15.5917 0)
(-12.7714 -19.3167 0)
(-12.9838 -23.4324 0)
(-13.3555 -23.7832 0)
(-12.3799 -26.7828 0)
(-10.3733 -30.7769 0)
(-8.54864 -33.0259 0)
(-7.76493 -33.2444 0)
(-8.44885 -32.2524 0)
(-9.34124 -31.9187 0)
(-8.782 -33.7695 0)
(-6.88823 -36.7399 0)
(-6.02604 -37.6569 0)
(-4.63767 -36.2488 0)
(-2.41046 -34.8081 0)
(-0.309718 -34.0233 0)
(1.11597 -34.2885 0)
(1.98288 -34.5298 0)
(3.45786 -34.5694 0)
(5.21702 -35.0093 0)
(7.36799 -34.6191 0)
(9.48653 -32.3191 0)
(11.2092 -27.7367 0)
(12.4735 -22.4082 0)
(11.781 -14.0731 0)
(11.8009 -4.0543 0)
(-26.4275 172.209 0)
(-123.25 752.01 0)
(155.557 297.83 0)
(-139.477 -330.121 0)
(82.9373 -984.016 0)
(74.1569 322.439 0)
(-326.728 775.467 0)
(80.4251 -264.34 0)
(-23.5617 -395.525 0)
(33.3962 148.184 0)
(-76.5232 50.6552 0)
(1.1401 -80.0592 0)
(-28.3414 -14.0134 0)
(-23.5241 -35.5174 0)
(-19.6263 -31.4634 0)
(-24.705 -33.1769 0)
(-22.2947 -37.0534 0)
(-20.0076 -41.7607 0)
(-20.1147 -41.8134 0)
(-19.2358 -42.0265 0)
(-16.9589 -46.8833 0)
(-13.651 -54.1177 0)
(-11.3306 -57.8707 0)
(-11.7261 -56.329 0)
(-11.736 -55.7347 0)
(-9.23146 -60.4323 0)
(-5.87261 -67.1524 0)
(-3.56744 -69.2263 0)
(-6.07838 -70.4996 0)
(-4.04202 -72.5725 0)
(-0.453254 -73.3879 0)
(2.58394 -72.8636 0)
(5.11885 -71.4048 0)
(6.99496 -68.8027 0)
(9.41387 -64.9925 0)
(11.4182 -59.4423 0)
(12.7935 -52.5288 0)
(14.0745 -45.5382 0)
(15.9619 -37.8327 0)
(17.287 -28.3299 0)
(19.5183 -17.6187 0)
(17.2287 -10.2961 0)
(242.722 374.497 0)
(-148.85 153.527 0)
(-407.791 -129.129 0)
(264.2 848.404 0)
(-291.967 -426.976 0)
(291.91 -976.213 0)
(18.6592 226.749 0)
(-277.119 678.925 0)
(-132.063 -71.5047 0)
(92.7785 -442.639 0)
(68.826 76.2072 0)
(-122.349 51.616 0)
(-15.5901 -83.3103 0)
(-23.3683 -40.4328 0)
(-32.7138 -37.9293 0)
(-30.4073 -41.0022 0)
(-26.7312 -54.3128 0)
(-23.699 -61.6211 0)
(-23.2882 -62.8789 0)
(-23.0761 -60.0203 0)
(-19.8521 -63.524 0)
(-15.1319 -75.2046 0)
(-14.5219 -83.8362 0)
(-18.7647 -81.8028 0)
(-19.5475 -82.6252 0)
(-15.9588 -91.3584 0)
(-11.3266 -100.887 0)
(-10.1696 -102.252 0)
(-8.09409 -98.8716 0)
(-6.057 -96.6509 0)
(-2.42503 -95.8763 0)
(0.397071 -93.365 0)
(2.58409 -88.9262 0)
(4.67854 -83.5777 0)
(7.19441 -76.8029 0)
(8.74897 -68.2512 0)
(11.4839 -57.9881 0)
(14.1625 -48.1772 0)
(17.5589 -39.1006 0)
(19.6622 -29.5653 0)
(25.0826 -21.4128 0)
(23.452 -11.1356 0)
(-3.75897 -205.291 0)
(-154.843 -919.559 0)
(245.886 -91.2464 0)
(-236.495 226.296 0)
(-39.5151 775.227 0)
(-285.342 -46.6738 0)
(302.518 -738.517 0)
(10.9032 -40.013 0)
(-296.758 431.315 0)
(36.0602 -114.528 0)
(5.56313 -116.246 0)
(-51.0377 4.51477 0)
(-31.0182 -60.7205 0)
(-9.36614 -69.0854 0)
(-20.8243 -38.1954 0)
(-31.5562 -34.0981 0)
(-30.6814 -47.3489 0)
(-22.5067 -67.0996 0)
(-21.5726 -78.0565 0)
(-25.2872 -71.4239 0)
(-23.9501 -70.4981 0)
(-18.6496 -83.4203 0)
(-17.1078 -94.9558 0)
(-20.1754 -93.2835 0)
(-19.4229 -94.4538 0)
(-15.1711 -105.363 0)
(-13.1836 -115.097 0)
(-12.8442 -115.635 0)
(-11.1145 -113.47 0)
(-8.02671 -113.178 0)
(-4.72758 -112.362 0)
(-2.2344 -108.891 0)
(0.836304 -103.757 0)
(4.3965 -96.8028 0)
(8.15565 -87.4207 0)
(10.5854 -75.7183 0)
(13.5687 -63.2695 0)
(15.7184 -50.5432 0)
(19.3161 -38.9624 0)
(22.3054 -28.6817 0)
(26.8809 -21.2727 0)
(24.0808 -14.0048 0)
(-127.184 -105.48 0)
(-27.8732 597.115 0)
(-28.8554 136.036 0)
(162.829 -699.802 0)
(-85.0866 -270.141 0)
(-84.5408 547.544 0)
(-251.09 195.502 0)
(211.671 -310.03 0)
(41.8798 -173.787 0)
(-127.768 214.568 0)
(-42.0876 -62.849 0)
(-1.38928 -4.04351 0)
(-35.1555 -45.134 0)
(-17.6767 -91.6584 0)
(-31.1376 -22.4048 0)
(-38.3962 -24.1975 0)
(-35.3284 -31.0662 0)
(-24.2806 -64.9704 0)
(-23.9717 -79.6335 0)
(-29.463 -68.1769 0)
(-29.281 -67.7051 0)
(-25.2488 -81.4463 0)
(-24.1816 -92.5384 0)
(-25.9639 -92.5318 0)
(-24.2814 -95.6644 0)
(-19.65 -105.853 0)
(-15.7244 -113.215 0)
(-14.1937 -113.288 0)
(-12.6721 -112.45 0)
(-8.92166 -114.105 0)
(-5.4744 -114.011 0)
(-2.43081 -111.337 0)
(1.06381 -107.656 0)
(4.19325 -102.126 0)
(7.97736 -93.753 0)
(11.1385 -82.3041 0)
(14.2096 -68.6117 0)
(16.6469 -54.7442 0)
(19.2956 -42.8304 0)
(21.8726 -31.172 0)
(25.4795 -18.9521 0)
(21.8743 -10.034 0)
(222.322 386.977 0)
(-55.8302 262.865 0)
(-382.689 -111.466 0)
(-30.1167 689.63 0)
(202.673 -435.524 0)
(-25.0362 -697.509 0)
(32.8665 311.165 0)
(-303.76 424.54 0)
(164.374 -175.594 0)
(64.1883 -222.222 0)
(-27.8665 104.7 0)
(-65.9512 18.0453 0)
(15.3806 -65.4805 0)
(0.360905 -27.2243 0)
(-21.0805 -9.48865 0)
(-20.6529 -32.059 0)
(-18.4492 -34.137 0)
(-18.2967 -38.6719 0)
(-17.0374 -50.8473 0)
(-17.1027 -60.5145 0)
(-19.2094 -65.1502 0)
(-23.2386 -58.6515 0)
(-22.8024 -68.9838 0)
(-20.533 -83.4985 0)
(-16.2595 -94.2722 0)
(-13.7452 -100.205 0)
(-13.9595 -101.665 0)
(-13.708 -102.406 0)
(-11.8034 -104.715 0)
(-8.95748 -107.399 0)
(-6.81751 -108.093 0)
(-4.21019 -107.399 0)
(-1.11858 -106.391 0)
(1.83702 -104.145 0)
(5.08848 -99.4145 0)
(7.83655 -90.9711 0)
(10.7055 -78.3199 0)
(13.8561 -63.3164 0)
(16.9103 -48.4101 0)
(19.0485 -33.6062 0)
(20.9369 -17.9557 0)
(19.7947 -5.98107 0)
(-377.032 -448.406 0)
(204.96 -266.162 0)
(91 149.036 0)
(42.211 -560.036 0)
(22.0341 359.947 0)
(-373.139 520.391 0)
(209.854 -315.811 0)
(81.5005 -212.454 0)
(-37.3934 132.274 0)
(-36.3761 16.4227 0)
(23.5071 0.629774 0)
(17.1899 -26.7319 0)
(7.58256 -35.7942 0)
(-9.46793 14.7426 0)
(-6.73072 -43.361 0)
(3.25389 -42.1704 0)
(-3.57026 -22.2201 0)
(-10.9243 -12.4521 0)
(-13.566 -21.8639 0)
(-7.03357 -46.2132 0)
(-7.99344 -48.0075 0)
(-11.6327 -40.2638 0)
(-12.3919 -46.5393 0)
(-8.75056 -61.6442 0)
(-7.76903 -72.859 0)
(-9.74914 -76.8761 0)
(-11.4844 -79.3444 0)
(-11.3421 -85.0367 0)
(-9.51971 -92.8384 0)
(-7.58282 -98.98 0)
(-6.21287 -102.31 0)
(-4.46415 -104.444 0)
(-2.32724 -106.144 0)
(0.127466 -106.593 0)
(2.24891 -104.534 0)
(4.27849 -98.5765 0)
(6.03014 -87.6934 0)
(8.49084 -73.265 0)
(11.3873 -57.1547 0)
(13.5329 -39.8657 0)
(15.0267 -22.1217 0)
(14.8248 -6.70994 0)
(0.970499 292.988 0)
(26.2462 798.371 0)
(-6.88019 88.4336 0)
(-298.759 3.39818 0)
(485.279 -736.525 0)
(-35.8201 -124.123 0)
(-138.145 584.685 0)
(-180.207 126.073 0)
(117.228 -381.673 0)
(150.006 -6.04182 0)
(-98.9659 133.465 0)
(-6.09091 -29.6938 0)
(42.158 -71.6544 0)
(13.2895 -3.0696 0)
(-2.62198 -14.0198 0)
(1.81993 -33.5811 0)
(-0.308318 -21.3247 0)
(-1.59441 -22.3575 0)
(1.04717 -20.9187 0)
(2.35338 -34.5876 0)
(1.40417 -35.3492 0)
(-0.876105 -27.1696 0)
(-1.57609 -32.4789 0)
(1.79108 -44.6582 0)
(0.767269 -45.6628 0)
(-3.59376 -45.3892 0)
(-5.66654 -51.1893 0)
(-5.96996 -60.9407 0)
(-5.85856 -72.3259 0)
(-5.84672 -82.9685 0)
(-5.68101 -91.8713 0)
(-4.96835 -99.2216 0)
(-3.71904 -104.946 0)
(-2.01239 -108.19 0)
(-1.06804 -107.73 0)
(-0.165236 -103.024 0)
(0.423001 -94.1394 0)
(1.05047 -82.4953 0)
(2.02256 -68.1954 0)
(2.73944 -50.4798 0)
(4.43722 -30.0783 0)
(1.67162 -9.18184 0)
(190.861 -42.3634 0)
(-169.896 -889.882 0)
(212.856 -287.568 0)
(-91.8927 663.533 0)
(-479.398 598.554 0)
(440.948 -442.458 0)
(66.6823 -529.718 0)
(-26.9109 356.424 0)
(-201.563 139.917 0)
(82.4985 -196.067 0)
(60.3737 14.9404 0)
(-32.3647 32.5283 0)
(21.9418 -81.9765 0)
(18.4262 9.87057 0)
(-8.40008 5.57591 0)
(8.27817 -40.5413 0)
(6.20776 -14.9371 0)
(-2.76824 -17.5941 0)
(4.32916 -21.9517 0)
(6.29848 -35.3641 0)
(6.79676 -28.4393 0)
(1.47824 -20.175 0)
(2.30477 -24.1701 0)
(5.8872 -35.6515 0)
(5.50405 -32.4399 0)
(2.34688 -28.1533 0)
(1.5459 -31.8026 0)
(2.17396 -39.7545 0)
(1.00215 -48.1895 0)
(-1.54515 -57.9182 0)
(-4.13245 -69.0064 0)
(-5.83315 -80.6822 0)
(-6.06364 -91.5725 0)
(-5.02556 -99.6142 0)
(-3.95504 -102.917 0)
(-3.43039 -101.646 0)
(-2.08263 -97.102 0)
(2.07145 -88.6593 0)
(4.43011 -75.087 0)
(5.95272 -57.5159 0)
(6.69462 -37.1566 0)
(2.52749 -12.8348 0)
(-631.979 -422.968 0)
(482.256 40.9661 0)
(80.1648 -150 0)
(109.595 -702.613 0)
(73.0944 280.919 0)
(-402.917 955.001 0)
(221.912 -315.816 0)
(83.4203 -531.851 0)
(39.4087 250.865 0)
(-136.516 26.507 0)
(55.2776 -12.0971 0)
(-10.3049 25.4534 0)
(16.2657 -129.926 0)
(15.565 29.7063 0)
(-29.7926 54.0235 0)
(10.8175 -54.0276 0)
(12.4679 -18.1129 0)
(-2.60807 7.16102 0)
(1.94605 -24.456 0)
(8.06734 -27.9193 0)
(6.59278 -22.6767 0)
(2.64977 -13.383 0)
(2.09885 -17.2125 0)
(4.61655 -25.2224 0)
(4.15002 -25.1488 0)
(3.17034 -24.7353 0)
(4.13648 -26.8479 0)
(4.68191 -29.2461 0)
(4.07333 -31.2266 0)
(3.08837 -34.4018 0)
(1.92245 -39.3494 0)
(-0.0358229 -46.7028 0)
(-2.58408 -56.8909 0)
(-5.19053 -68.65 0)
(-6.70954 -79.3791 0)
(-6.37391 -86.6272 0)
(-4.84251 -88.6793 0)
(-5.37475 -85.5547 0)
(-3.92189 -76.5198 0)
(-2.06538 -60.3286 0)
(0.117274 -37.1945 0)
(-3.91068 -12.0791 0)
(-188.234 314.92 0)
(-47.5433 1132.84 0)
(-26.8432 326.827 0)
(373.478 -741.801 0)
(-21.3977 -887.028 0)
(80.5209 420.244 0)
(-488.118 706.181 0)
(213.283 -370.469 0)
(144.383 -156.669 0)
(-67.9343 78.304 0)
(-43.8068 112.442 0)
(-23.8573 9.71426 0)
(40.8144 -152.593 0)
(16.0796 34.1837 0)
(-40.9474 74.4581 0)
(4.84261 -44.0351 0)
(8.9435 -9.75804 0)
(-5.82507 8.41316 0)
(1.77755 -9.79221 0)
(5.59878 -14.6304 0)
(3.00478 -7.1252 0)
(-0.804188 -7.5459 0)
(0.680472 -7.48565 0)
(0.893998 -10.5928 0)
(0.944417 -13.804 0)
(2.02341 -17.7115 0)
(2.35931 -19.5402 0)
(2.11709 -20.7233 0)
(2.20926 -21.3549 0)
(2.36964 -20.0327 0)
(2.50761 -17.3138 0)
(2.5199 -14.8734 0)
(2.38551 -14.8733 0)
(1.23326 -18.7983 0)
(-1.29459 -28.4527 0)
(-4.57629 -43.195 0)
(-6.00381 -58.4856 0)
(-5.03131 -66.1546 0)
(-5.42243 -64.5858 0)
(-3.33605 -53.9509 0)
(-1.44409 -35.7261 0)
(-2.43311 -13.0336 0)
(573.732 698.037 0)
(70.2987 -37.0809 0)
(-747.684 126.655 0)
(-238.666 766.955 0)
(628.759 -482.106 0)
(-25.9258 -882.434 0)
(-28.1622 482.651 0)
(-330.642 397.154 0)
(123.4 -274.184 0)
(43.9439 -120.878 0)
(-44.5957 176.898 0)
(-42.2889 5.82667 0)
(22.6021 -96.6422 0)
(-3.15146 59.3843 0)
(-29.6236 24.4176 0)
(9.40905 -31.5718 0)
(-0.952967 13.5571 0)
(-15.1606 19.2337 0)
(-3.35708 -7.9179 0)
(-0.287882 2.80086 0)
(-3.76905 4.01891 0)
(-2.92051 2.51694 0)
(-2.96929 3.17826 0)
(-2.65423 3.47192 0)
(-0.116075 -2.6216 0)
(1.18699 -3.26784 0)
(0.344683 -1.0469 0)
(0.779702 -1.58934 0)
(2.83861 -2.4032 0)
(4.09977 1.84062 0)
(3.21272 4.32737 0)
(3.73324 9.77938 0)
(4.35334 16.2525 0)
(3.31341 20.4333 0)
(2.35571 20.8548 0)
(2.55713 6.56552 0)
(1.62768 1.85309 0)
(-0.743264 -15.9153 0)
(-2.18992 -31.5172 0)
(-4.08567 -34.9056 0)
(-4.67457 -26.5375 0)
(-7.95325 -11.1645 0)
(94.8082 -191.773 0)
(-268.921 -997.917 0)
(329.925 -46.032 0)
(-5.90819 466.385 0)
(-480.614 638.958 0)
(321.51 -471.574 0)
(11.8119 -333.365 0)
(-81.8848 368.138 0)
(-71.7554 -9.27174 0)
(34.299 -120.121 0)
(-29.8456 99.392 0)
(0.776154 -85.4873 0)
(2.62576 30.5157 0)
(-53.1082 103.967 0)
(2.74368 -64.2209 0)
(9.56048 -18.8301 0)
(-16.0026 44.6961 0)
(-15.2847 20.6203 0)
(-3.46406 3.99363 0)
(-3.13728 5.85541 0)
(-4.66475 18.1208 0)
(-6.42238 23.8638 0)
(-5.07279 19.3592 0)
(-1.07364 14.8468 0)
(0.586419 14.6343 0)
(0.905658 20.1642 0)
(-0.447919 25.6207 0)
(0.518063 23.8651 0)
(2.3354 22.6058 0)
(4.43787 25.4688 0)
(5.60433 31.1454 0)
(5.31381 36.701 0)
(5.38307 42.3924 0)
(5.4315 49.0715 0)
(4.7475 55.1415 0)
(2.91936 58.3661 0)
(0.635134 56.3825 0)
(0.0179708 39.0665 0)
(4.53644 23.895 0)
(-0.691976 6.78746 0)
(-7.12231 3.40273 0)
(-7.90506 -7.18351 0)
(-198.208 -145.892 0)
(127.385 834.165 0)
(-145.631 131.032 0)
(162.848 -1078.96 0)
(114.085 85.9757 0)
(-196.801 690.47 0)
(-22.0566 -145.895 0)
(115.07 -223.958 0)
(36.03 15.8505 0)
(-22.1995 147.976 0)
(-1.49753 -43.3894 0)
(27.8677 -102.432 0)
(-8.28451 126.849 0)
(-41.2087 25.5273 0)
(17.5196 -57.0931 0)
(-2.9831 49.4885 0)
(-25.8645 42.2395 0)
(-2.00853 9.5054 0)
(-0.870264 27.3004 0)
(-4.20278 28.5746 0)
(-3.12703 29.3179 0)
(-3.80997 36.7857 0)
(-2.43711 36.9037 0)
(0.338407 34.3907 0)
(-0.306661 37.7981 0)
(-0.631036 43.441 0)
(0.850125 48.5704 0)
(3.02348 49.9882 0)
(4.60548 50.3797 0)
(5.31503 53.1875 0)
(5.92104 58.2864 0)
(6.38895 63.336 0)
(6.44782 68.3182 0)
(6.24814 74.8498 0)
(5.59648 82.847 0)
(4.99986 90.3166 0)
(4.68278 94.0087 0)
(3.80813 91.3009 0)
(-2.51154 78.6238 0)
(7.06679 60.675 0)
(3.60189 36.9807 0)
(5.91334 3.37764 0)
(548.239 861.077 0)
(22.2171 203.632 0)
(-720.079 287.472 0)
(-336.635 233.218 0)
(805.825 -419.241 0)
(-155.96 -672.632 0)
(2.83096 682.91 0)
(-241.168 65.6453 0)
(120.593 -257.115 0)
(32.8253 95.3664 0)
(-20.9128 -7.70282 0)
(12.3264 -2.49253 0)
(-19.1403 97.041 0)
(12.1683 -37.3356 0)
(7.64969 3.35698 0)
(-18.2811 94.933 0)
(-10.6492 14.2039 0)
(13.9076 -8.7711 0)
(-1.20785 42.4065 0)
(-9.40568 56.6552 0)
(-0.321653 36.9225 0)
(-0.22067 41.6221 0)
(-0.630212 50.7291 0)
(-0.790886 58.1474 0)
(-0.888927 60.5502 0)
(0.271223 63.2112 0)
(2.17535 67.4279 0)
(3.86622 71.2456 0)
(4.83907 74.3051 0)
(4.65038 78.3904 0)
(4.31659 83.7303 0)
(4.93122 88.5037 0)
(5.46523 92.8113 0)
(5.29986 98.3363 0)
(4.71472 105.398 0)
(4.50938 112.589 0)
(4.69191 117.965 0)
(4.25978 119.285 0)
(4.72295 112.213 0)
(-2.62416 93.0622 0)
(-4.59993 60.7299 0)
(8.37839 13.8695 0)
(-51.4226 -238.285 0)
(-220.794 -865.183 0)
(337.237 129.15 0)
(-48.3638 536.657 0)
(-137.402 44.4995 0)
(27.2476 -232.168 0)
(-2.29845 -5.42234 0)
(-6.7744 123.637 0)
(13.5822 -22.596 0)
(15.1739 -0.261543 0)
(3.77545 31.3056 0)
(12.34 1.17387 0)
(7.54199 73.7376 0)
(6.54429 14.4431 0)
(16.1158 -12.1169 0)
(-0.264371 72.9317 0)
(-4.54489 44.2686 0)
(16.8413 3.6504 0)
(-0.873124 44.8614 0)
(-8.33659 70.0994 0)
(0.234266 52.4602 0)
(0.627718 53.1832 0)
(-0.147933 63.1062 0)
(-1.80545 74.0662 0)
(-0.33882 77.6437 0)
(2.13236 77.4422 0)
(3.17933 80.3935 0)
(3.02001 86.9354 0)
(2.29687 93.7359 0)
(1.59961 99.7652 0)
(1.47479 104.984 0)
(2.3286 109.305 0)
(3.13548 113.712 0)
(3.27855 118.803 0)
(3.04511 123.722 0)
(2.65045 127.478 0)
(2.94047 129.314 0)
(4.17512 127.973 0)
(4.47751 122.149 0)
(5.5561 107.974 0)
(-1.6031 79.2796 0)
(-2.59124 17.8958 0)
(-220.267 -71.872 0)
(104.677 983.057 0)
(-180.812 -193.15 0)
(305.217 -1076.46 0)
(75.0715 160.312 0)
(-342.718 872.01 0)
(36.3358 -218.88 0)
(157.6 -275.678 0)
(-4.54103 130.974 0)
(-45.0923 67.2632 0)
(26.4546 8.11858 0)
(32.1121 -21.1003 0)
(15.2006 52.1837 0)
(-1.62863 58.551 0)
(15.0026 1.57904 0)
(6.15319 41.0988 0)
(-2.19123 52.9031 0)
(4.03914 39.0842 0)
(-3.03678 57.0339 0)
(-5.8369 67.7603 0)
(-0.363988 64.4804 0)
(-0.104307 66.5852 0)
(-0.896751 73.5321 0)
(-0.836041 80.703 0)
(0.613706 85.3542 0)
(1.58947 89.0322 0)
(0.747492 94.3513 0)
(-0.597818 100.929 0)
(-1.44384 107.527 0)
(-1.34058 113.645 0)
(-0.690561 118.677 0)
(0.100989 122.659 0)
(0.658807 126.604 0)
(0.977105 130.359 0)
(1.65994 132.531 0)
(2.02223 132.585 0)
(2.41371 130.5 0)
(2.9775 125.37 0)
(2.89016 115.187 0)
(6.80746 96.6917 0)
(-3.39778 72.2484 0)
(17.4488 19.8071 0)
(265.49 749.328 0)
(-363.63 1203.39 0)
(-92.441 -123.584 0)
(44.6828 -159.567 0)
(174.168 -968.677 0)
(198.562 203.1 0)
(-421.079 604.807 0)
(84.2702 -248.41 0)
(92.7033 -66.2934 0)
(-26.8049 104.036 0)
(9.46182 20.5958 0)
(30.4065 11.5522 0)
(11.5494 24.5013 0)
(0.231819 44.7597 0)
(-3.8791 58.6903 0)
(1.01039 28.997 0)
(1.25451 36.2813 0)
(-8.45059 72.9003 0)
(-8.08326 69.4892 0)
(3.21098 51.4691 0)
(2.21347 58.6736 0)
(-2.93167 76.3747 0)
(-4.07444 86.6803 0)
(-1.9149 88.0612 0)
(-0.427426 89.4771 0)
(-2.2928 98.1058 0)
(-4.53836 108.57 0)
(-4.08001 112.982 0)
(-2.26529 114.61 0)
(-1.25312 118.997 0)
(-1.06858 124.992 0)
(-0.850013 129.426 0)
(-0.320126 132.185 0)
(0.249099 133.616 0)
(1.57032 132.886 0)
(2.53857 129.807 0)
(3.0867 124.004 0)
(3.35438 113.414 0)
(3.06978 95.5856 0)
(8.38085 69.2998 0)
(-1.95621 46.3269 0)
(18.6308 15.9124 0)
(-668.189 -437.526 0)
(399.101 -127.937 0)
(483.458 -92.9462 0)
(-93.5729 -799.144 0)
(-115.156 441.053 0)
(-587.891 848.61 0)
(535.542 -129.353 0)
(13.2326 -658.331 0)
(-57.2523 327.688 0)
(-122.652 88.3949 0)
(67.0782 -83.4811 0)
(16.7262 65.5493 0)
(-10.645 29.1532 0)
(1.20093 21.5831 0)
(-14.9524 78.4381 0)
(-5.41238 30.9835 0)
(2.29418 28.1027 0)
(-13.1703 76.5631 0)
(-10.4909 76.2718 0)
(1.94986 56.1138 0)
(-2.46534 62.9109 0)
(-7.52653 82.8791 0)
(-7.15109 93.4257 0)
(-3.93131 93.0716 0)
(-3.17634 93.8247 0)
(-6.21924 104.255 0)
(-7.15005 115.167 0)
(-4.14805 117.387 0)
(-1.32182 117.995 0)
(-0.984465 123.134 0)
(-0.990942 128.565 0)
(-0.241846 130.704 0)
(0.649317 131.448 0)
(1.16725 131.282 0)
(2.28256 128.06 0)
(3.1278 120.807 0)
(4.0888 108.941 0)
(5.85589 91.1894 0)
(5.7903 69.0117 0)
(11.0382 42.4328 0)
(1.38183 21.501 0)
(17.0783 13.6935 0)
(34.4127 385.927 0)
(-186.405 929.726 0)
(-114.913 16.4053 0)
(159.776 -395.021 0)
(-92.1991 -588.602 0)
(19.5175 553.063 0)
(-57.8071 206.192 0)
(47.9712 -300.177 0)
(-2.10612 92.6276 0)
(-24.1958 75.3105 0)
(36.7539 -11.9969 0)
(-13.8481 68.2751 0)
(-15.6369 21.2409 0)
(-11.5012 38.4461 0)
(-27.4428 82.7875 0)
(-7.74104 29.8054 0)
(0.412994 26.5442 0)
(-16.2752 69.3658 0)
(-14.4344 76.4914 0)
(-4.34431 62.1987 0)
(-5.4185 63.1525 0)
(-10.1177 79.135 0)
(-10.2096 92.629 0)
(-8.08003 98.7302 0)
(-7.33971 102.015 0)
(-7.38758 108.277 0)
(-5.04334 112.93 0)
(-1.50448 113.468 0)
(-0.507647 116.791 0)
(-1.53845 124.374 0)
(-1.32285 129.118 0)
(0.103918 128.619 0)
(1.50226 126.179 0)
(2.42988 122.265 0)
(3.7065 114.893 0)
(4.97789 102.986 0)
(6.97951 86.1666 0)
(9.98186 65.1891 0)
(9.97083 45.0371 0)
(11.6308 27.0446 0)
(5.84244 11.2793 0)
(18.3213 10.4176 0)
(126.526 820.706 0)
(-304.064 1634.84 0)
(-266.438 49.3656 0)
(248.885 -563.834 0)
(227.657 -1441.54 0)
(258.244 528.125 0)
(-650.806 897.277 0)
(176.303 -320.75 0)
(146.066 -175.783 0)
(-74.1331 189.244 0)
(-67.2304 57.106 0)
(9.19618 -44.3298 0)
(-14.7733 33.3433 0)
(-36.1689 75.0658 0)
(-20.6668 38.324 0)
(-9.19375 33.4799 0)
(-12.2347 51.1999 0)
(-14.9298 61.4136 0)
(-14.7099 68.8034 0)
(-13.4449 74.026 0)
(-10.7622 73.4123 0)
(-7.66342 72.9423 0)
(-6.7463 79.7588 0)
(-6.89353 89.3535 0)
(-6.81833 98.462 0)
(-5.75341 104.665 0)
(-3.66343 108.664 0)
(-2.09984 111.473 0)
(-2.06024 115.092 0)
(-2.53851 119.579 0)
(-1.82972 121.39 0)
(-0.208299 118.681 0)
(1.82541 112.663 0)
(3.72576 104.105 0)
(5.73151 93.254 0)
(7.68615 80.0007 0)
(10.0873 64.4584 0)
(12.5319 47.5604 0)
(11.808 32.726 0)
(10.6372 20.8373 0)
(10.3196 10.5495 0)
(17.6163 6.90137 0)
(-585.682 178.756 0)
(616.633 1553.92 0)
(-270.285 -523.894 0)
(720.81 -1375.09 0)
(-128.118 -292.755 0)
(-269.707 1364.44 0)
(-481.355 212.75 0)
(282.615 -827.113 0)
(206.209 129.233 0)
(-263.864 298.612 0)
(-15.5767 -73.0369 0)
(31.4549 -80.6403 0)
(-38.9915 86.3496 0)
(-48.0011 87.6478 0)
(0.406174 -12.5905 0)
(-2.04272 12.9855 0)
(-19.0084 61.4791 0)
(-15.0407 61.4579 0)
(-10.3405 57.0566 0)
(-9.32922 62.6773 0)
(-7.30949 67.7705 0)
(-6.11321 71.6142 0)
(-7.85117 79.9297 0)
(-8.53544 87.3155 0)
(-6.70713 90.8174 0)
(-4.46569 92.3612 0)
(-3.55322 96.5807 0)
(-3.61416 101.87 0)
(-3.57887 104.73 0)
(-3.12919 104.958 0)
(-1.68538 102.391 0)
(0.366236 96.8213 0)
(2.51564 89.616 0)
(4.09416 81.5488 0)
(5.8671 72.3801 0)
(7.86368 61.8498 0)
(10.1866 50.6384 0)
(12.0189 38.9583 0)
(10.9825 27.8666 0)
(9.31455 17.6159 0)
(11.8477 9.92681 0)
(14.9454 5.4239 0)
(51.5878 -0.920355 0)
(68.7431 -340.162 0)
(-254.184 -73.7824 0)
(-16.9572 540.708 0)
(-128.013 -69.5704 0)
(187.199 -285.7 0)
(-17.3361 162.335 0)
(-31.7851 83.5669 0)
(8.29478 -82.1414 0)
(5.45891 35.6323 0)
(-8.82444 40.8864 0)
(1.53379 -32.3543 0)
(-30.7024 88.5224 0)
(-34.8026 71.5742 0)
(4.1304 -2.11615 0)
(-10.7493 36.7635 0)
(-18.5766 58.977 0)
(-7.64198 44.7054 0)
(-6.26685 44.2749 0)
(-7.25547 52.3179 0)
(-5.44675 55.0052 0)
(-5.7771 58.8504 0)
(-8.92686 69.0332 0)
(-9.88628 76.7293 0)
(-6.80165 74.9523 0)
(-3.45362 71.8285 0)
(-3.06962 74.0314 0)
(-3.93486 78.8191 0)
(-4.06392 81.1182 0)
(-3.28723 80.1743 0)
(-1.54134 76.5472 0)
(0.154658 71.4118 0)
(1.31945 66.4239 0)
(2.15774 61.2519 0)
(4.09977 54.6523 0)
(6.16232 47.0889 0)
(7.92286 39.9865 0)
(9.24789 32.46 0)
(8.33236 24.0138 0)
(6.83905 15.5085 0)
(9.71347 9.14841 0)
(10.5596 4.3591 0)
(239.476 -437.281 0)
(-180.95 -1853.35 0)
(189.493 245.58 0)
(-358.821 1761.32 0)
(-424.79 138.628 0)
(775.046 -772.152 0)
(13.9425 -591.938 0)
(-392.951 728.326 0)
(28.1251 -93.8012 0)
(94.5726 -73.9942 0)
(-35.4975 54.1629 0)
(-6.66547 -17.515 0)
(-17.8837 48.7482 0)
(-19.8858 33.6063 0)
(-3.75569 13.0764 0)
(-10.1493 31.5324 0)
(-6.53389 30.7622 0)
(-6.05938 34.134 0)
(-10.501 42.3396 0)
(-6.96024 38.5416 0)
(-2.40704 31.1264 0)
(-4.23597 36.0074 0)
(-8.46102 47.1409 0)
(-7.27103 50.1213 0)
(-3.66994 45.5289 0)
(-3.25207 46.5643 0)
(-4.18169 46.9127 0)
(-4.79399 49.2386 0)
(-4.5827 49.4682 0)
(-3.13228 47.7606 0)
(-1.57282 46.0382 0)
(-0.937807 44.8015 0)
(-0.639807 43.5874 0)
(0.0194723 41.3229 0)
(1.96301 37.2953 0)
(3.43251 32.6587 0)
(4.08944 28.9125 0)
(4.7758 24.8424 0)
(3.90553 19.3318 0)
(2.3101 13.8843 0)
(4.49177 8.26744 0)
(4.6163 3.4608 0)
(-226.74 -176.008 0)
(284.023 287.389 0)
(-192.567 -230.91 0)
(10.2532 -684.03 0)
(-4.92988 286.905 0)
(-119.444 486.122 0)
(121.04 -25.0076 0)
(69.083 -330.352 0)
(-20.6498 155.575 0)
(-51.8778 96.21 0)
(16.01 -60.827 0)
(-5.68593 18.9128 0)
(-22.253 27.7841 0)
(-4.71599 1.61992 0)
(-5.20819 14.8138 0)
(-3.52876 8.68553 0)
(-0.873511 5.35568 0)
(-7.3138 18.3895 0)
(-6.63979 19.8134 0)
(0.515689 9.25143 0)
(1.6252 5.85461 0)
(-2.90445 12.6814 0)
(-5.13092 18.2086 0)
(-2.19912 16.0645 0)
(-1.06446 11.8559 0)
(-1.60253 14.2283 0)
(-2.90662 17.6904 0)
(-4.21922 20.4077 0)
(-3.07307 16.9717 0)
(-1.59186 15.1055 0)
(-1.725 16.154 0)
(-2.40002 18.1422 0)
(-2.25172 18.6114 0)
(-1.4679 18.6824 0)
(-0.0633088 17.986 0)
(0.40801 16.7947 0)
(-0.205877 16.3602 0)
(-0.716104 15.3791 0)
(-1.30799 12.9829 0)
(-3.36147 12.2045 0)
(-2.27444 6.59558 0)
(-2.13336 2.42491 0)
(531.554 567.024 0)
(-56.0646 -40.1201 0)
(-699.828 169.798 0)
(96.7228 452.597 0)
(341.947 -113.855 0)
(-11.9102 -967.372 0)
(-35.3264 476.501 0)
(-193.468 345.754 0)
(124.733 -247.298 0)
(55.1554 -67.9257 0)
(-38.9913 73.8474 0)
(-10.608 -6.27658 0)
(11.3388 -23.7981 0)
(5.07535 -3.08321 0)
(1.30367 -0.221477 0)
(8.56679 -16.9288 0)
(6.05019 -11.5152 0)
(-0.855631 -0.741607 0)
(2.8347 -8.27285 0)
(8.14085 -19.8062 0)
(6.10917 -18.2731 0)
(0.856214 -8.08704 0)
(1.66442 -4.65258 0)
(2.49107 -9.73528 0)
(0.978948 -13.965 0)
(-0.308476 -13.2144 0)
(-2.12677 -11.2134 0)
(-1.3201 -12.1848 0)
(0.496155 -14.9435 0)
(-0.0517464 -14.2783 0)
(-2.0021 -10.3628 0)
(-3.14073 -7.25316 0)
(-2.90522 -6.0588 0)
(-2.19328 -5.3701 0)
(-1.64042 -3.78322 0)
(-2.3704 -0.639628 0)
(-4.44666 3.00294 0)
(-5.92674 5.2647 0)
(-6.21287 5.2396 0)
(-8.10741 4.36162 0)
(-8.25116 5.57173 0)
(-8.26045 1.57152 0)
(-308.791 404.795 0)
(-20.485 1326.83 0)
(-186.834 -30.1741 0)
(937.427 -799.956 0)
(-199.572 -845.36 0)
(-161.118 900.641 0)
(-271.45 209.918 0)
(269.57 -432.714 0)
(46.7698 19.2291 0)
(-83.1174 97.6046 0)
(22.0803 -54.7973 0)
(35.3847 -23.8938 0)
(13.9806 -14.5381 0)
(14.3068 -23.8585 0)
(14.2587 -24.2599 0)
(15.4971 -29.6671 0)
(12.0105 -24.5849 0)
(5.4454 -14.4951 0)
(5.18161 -18.3319 0)
(7.90931 -29.9051 0)
(5.10231 -31.7706 0)
(3.70493 -26.6477 0)
(3.47832 -29.7939 0)
(4.15079 -34.8897 0)
(4.61602 -38.7094 0)
(2.6574 -37.4906 0)
(1.51749 -36.4854 0)
(1.78962 -38.4684 0)
(1.3707 -40.1154 0)
(-0.300272 -38.8058 0)
(-1.83059 -35.9488 0)
(-2.61568 -32.6752 0)
(-3.03878 -29.4391 0)
(-2.98946 -27.0277 0)
(-3.20251 -24.3922 0)
(-4.8762 -18.8652 0)
(-7.59059 -12.0356 0)
(-9.20119 -7.63279 0)
(-8.65845 -5.83007 0)
(-9.89133 -3.43289 0)
(-12.3742 2.52811 0)
(-12.1463 0.295486 0)
(-540.883 -1042.98 0)
(195.165 -837.298 0)
(1106.6 -556.232 0)
(-195.227 -234.326 0)
(-462.134 1289.26 0)
(-596.573 625.374 0)
(974.884 -515.074 0)
(96.9643 -922.168 0)
(-311.008 586.697 0)
(-104.154 -23.9282 0)
(110.289 -113.689 0)
(22.8457 -9.22747 0)
(20.9922 -40.2741 0)
(8.97854 10.0082 0)
(2.5881 -10.5574 0)
(20.6381 -58.2501 0)
(7.69522 -26.6556 0)
(-0.901586 -12.2493 0)
(11.9158 -40.8666 0)
(12.455 -46.1027 0)
(6.59649 -35.0978 0)
(5.96964 -38.8566 0)
(7.80006 -45.0278 0)
(8.43901 -52.205 0)
(6.22725 -51.5888 0)
(3.30876 -50.545 0)
(3.36389 -55.136 0)
(3.02262 -59.1744 0)
(0.632072 -58.2844 0)
(-1.06266 -57.2707 0)
(-1.35908 -57.6949 0)
(-1.9212 -55.6212 0)
(-3.21619 -50.4077 0)
(-3.83595 -45.507 0)
(-4.83912 -41.1704 0)
(-6.86537 -34.7 0)
(-8.64787 -27.3716 0)
(-9.14613 -21.7826 0)
(-8.24137 -16.9339 0)
(-8.98836 -10.7686 0)
(-13.4849 -2.46284 0)
(-12.8129 -0.731201 0)
(-473.901 -1129.51 0)
(-27.32 -1531.71 0)
(920.762 -356.424 0)
(-115.298 356.909 0)
(-785.74 1874.74 0)
(-225.287 -312.248 0)
(896.081 -1194.79 0)
(239.676 -54.0643 0)
(-662.308 728.561 0)
(114.191 -272.059 0)
(127.784 -64.0111 0)
(-43.0332 48.6494 0)
(28.4944 -81.0868 0)
(6.99988 28.2543 0)
(-2.48409 -18.1122 0)
(25.334 -72.3418 0)
(-4.45132 -0.435691 0)
(-4.49586 -15.296 0)
(25.265 -69.2171 0)
(10.3449 -48.0704 0)
(5.87377 -30.846 0)
(7.60827 -49.6831 0)
(11.6224 -59.0395 0)
(11.5359 -63.8615 0)
(5.48499 -55.3096 0)
(3.41456 -54.0405 0)
(4.81194 -63.1707 0)
(3.59129 -68.2456 0)
(0.131089 -66.3277 0)
(-0.972005 -67.0721 0)
(-0.711776 -70.4002 0)
(-1.73024 -69.8089 0)
(-3.779 -64.8391 0)
(-4.83867 -59.442 0)
(-6.06134 -53.9876 0)
(-7.27898 -47.194 0)
(-7.16029 -40.6275 0)
(-6.64378 -34.7298 0)
(-6.39732 -27.2136 0)
(-7.21204 -17.9798 0)
(-11.1709 -8.7639 0)
(-10.6497 -1.63191 0)
(-30.0121 566.096 0)
(-373.45 1286.77 0)
(89.7026 485.27 0)
(-73.7748 -641.663 0)
(553.866 -1632.77 0)
(-10.3268 318.531 0)
(-122.727 1363.71 0)
(-452.656 -113.432 0)
(374.09 -796.646 0)
(144.379 129.914 0)
(-166.674 225.756 0)
(25.8502 -105.875 0)
(45.1886 -55.1056 0)
(-13.6554 49.7143 0)
(12.9764 -58.631 0)
(16.5773 -48.7734 0)
(-11.3009 14.7605 0)
(11.2358 -47.3045 0)
(28.274 -70.7615 0)
(3.37055 -29.7775 0)
(4.86998 -25.127 0)
(10.7174 -51.5716 0)
(12.468 -58.5895 0)
(8.63627 -60.5051 0)
(4.01615 -55.2805 0)
(3.88966 -57.19 0)
(4.28838 -64.5539 0)
(1.92742 -67.4856 0)
(-0.450841 -67.6474 0)
(-0.400142 -70.8737 0)
(-0.483596 -74.4365 0)
(-2.19991 -73.846 0)
(-4.23579 -70.5748 0)
(-4.99957 -67.1014 0)
(-5.60208 -62.502 0)
(-5.55224 -56.5654 0)
(-4.05842 -51.0621 0)
(-3.71446 -44.7629 0)
(-4.68691 -35.1823 0)
(-5.51867 -23.9706 0)
(-6.68032 -14.2004 0)
(-7.44727 -2.88779 0)
(560.784 740.739 0)
(22.3156 13.1437 0)
(-760.445 288.858 0)