/*--------------------------------*- C++ -*----------------------------------*\
| =========                 |                                                 |
| \\      /  F ield         | OpenFOAM: The Open Source CFD Toolbox           |
|  \\    /   O peration     | Version:  2406                                  |
|   \\  /    A nd           | Website:  www.openfoam.com                      |
|    \\/     M anipulation  |                                                 |
\*---------------------------------------------------------------------------*/
FoamFile
{
    version     2.0;
    format      ascii;
    arch        "LSB;label=32;scalar=64";
    class       volScalarField;
    location    "0.109";
    object      ddt0(rho);
}
// * * * * * * * * * * * * * * * * * * * * * * * * * * * * * * * * * * * * * //

dimensions      [1 -3 -1 0 0 0 0];

internalField   nonuniform List<scalar> 
8988
(
-0.0897106
0.236976
0.083113
-0.370935
-0.00629335
0.17649
0.269231
0.0525913
-0.163965
-0.000859108
0.0832082
0.0525993
0.0246265
0.0205986
0.0369835
0.0476205
0.0476737
0.0403321
0.0323165
0.0268556
0.0246881
0.0229031
0.0216567
0.0201925
0.0170821
0.0148138
0.0140801
0.0157532
0.0164385
0.0131039
0.00861398
0.00620238
0.00484748
0.00233919
-0.00145281
-0.00543774
-0.00945851
-0.014377
-0.0211891
-0.0301272
-0.0426082
-0.0548918
-0.0849301
0.260113
0.940597
-1.02825
-0.604565
1.56524
0.532862
-0.958028
-0.172361
0.630388
0.280769
-0.093189
0.0235904
0.168193
0.112425
0.0732928
0.0815119
0.0821459
0.0756716
0.0746493
0.0672949
0.0613552
0.0602325
0.0587592
0.0542736
0.0433059
0.0388744
0.0395229
0.0381759
0.0244699
0.00524084
-0.00319189
-0.00724569
-0.0145737
-0.0239547
-0.0322889
-0.0399562
-0.0501965
-0.0630325
-0.0752651
-0.0799927
-0.0879867
-2.05959
0.789373
2.59236
0.73793
-2.15504
0.188979
1.01386
0.85172
-0.596784
-0.487989
0.594542
0.410061
0.0621802
0.0860083
0.188413
0.146168
0.12571
0.132686
0.131919
0.126137
0.120446
0.114569
0.112963
0.112319
0.105457
0.0875499
0.0654915
0.0507737
0.0445814
0.0289895
0.0108496
-0.00261218
-0.0144132
-0.0281577
-0.0458128
-0.0619743
-0.0752403
-0.0859898
-0.0938692
-0.0996836
-0.100761
-0.110155
-1.97155
0.908588
2.07688
0.611411
-0.443269
-0.791073
-0.448197
2.20096
0.145158
-0.92282
0.0177617
0.913044
0.210625
-0.0390872
0.233048
0.22126
0.162599
0.16049
0.16041
0.148843
0.144715
0.144407
0.140991
0.131909
0.116785
0.0968284
0.0771529
0.0605469
0.0433389
0.0245581
0.00746825
-0.00880756
-0.0282714
-0.0487117
-0.0684039
-0.0846014
-0.0956778
-0.101759
-0.105427
-0.109592
-0.116663
-0.121687
-0.16306
0.442462
-0.672052
0.500911
1.63593
0.111392
-0.833607
0.254431
0.795459
0.0435648
-0.034834
0.325398
0.207667
0.187219
0.203544
0.185761
0.178602
0.177306
0.163322
0.150377
0.148325
0.151651
0.148399
0.128722
0.107393
0.0943029
0.0836316
0.0658557
0.0346546
0.00909785
-0.00886747
-0.0287862
-0.0500605
-0.0687286
-0.0846715
-0.0988257
-0.107524
-0.1097
-0.107555
-0.104097
-0.107681
-0.120188
1.4277
-0.180784
-0.749003
-0.718528
-0.150469
2.04108
0.49051
-1.36066
-0.295155
1.09818
0.293292
-0.141774
0.228302
0.186298
0.139163
0.147622
0.156963
0.160747
0.14887
0.130391
0.128735
0.142665
0.139085
0.102385
0.0729251
0.0701119
0.0735775
0.0590267
0.0298155
0.00813934
-0.00774617
-0.0255596
-0.0442652
-0.0613306
-0.0760666
-0.0892515
-0.0953129
-0.101453
-0.100713
-0.0974589
-0.0981053
-0.106073
0.53371
-0.255617
0.790965
0.143048
-1.74373
-0.57234
2.02579
0.284592
-0.796881
0.0388165
0.316294
-0.0414177
0.0834257
0.1369
0.0741333
0.0215251
0.037835
0.0860229
0.103944
0.0725727
0.0570154
0.0758257
0.0901407
0.0679563
0.0479497
0.053321
0.0626843
0.0533114
0.0387438
0.0310605
0.0234085
0.0100606
-0.00506579
-0.0194418
-0.033548
-0.0481319
-0.0626692
-0.0758434
-0.0807769
-0.0786125
-0.0789131
-0.0850074
-1.01422
0.148207
-0.090843
1.03032
0.739227
-1.3772
-0.693511
0.872467
0.307353
-0.387725
-0.0613653
-0.043569
0.00643764
0.060813
-0.0250692
-0.089555
-0.044512
0.0282136
0.0531334
0.0105337
-0.00432608
0.0156553
0.0316404
0.0202854
0.0150682
0.0291457
0.0403537
0.0362257
0.0352709
0.0422431
0.047063
0.0449775
0.0400169
0.0318766
0.0197738
0.00482121
-0.0137688
-0.0342509
-0.0495551
-0.0519991
-0.0460249
-0.0427244
0.974684
-0.409564
-1.27399
-0.857701
0.69256
0.881355
-0.670516
-0.938069
0.24587
0.28383
-0.303454
-0.256429
-0.0351401
-0.0672284
-0.120984
-0.102169
-0.0963601
-0.0917185
-0.0727678
-0.0631545
-0.0617901
-0.0755161
-0.0631203
-0.0357897
-0.014851
-4.11167e-05
0.00798237
0.0159593
0.0302133
0.0480104
0.0621962
0.0717486
0.0780646
0.0783268
0.0716409
0.0588488
0.0420432
0.0242791
0.0100901
0.00284758
0.00159937
0.00396188
-2.06538
0.413608
1.32388
0.426807
-1.14719
-1.17174
0.48499
0.322478
-0.420677
-0.339215
-0.183228
-0.18399
-0.168932
-0.256156
-0.203733
-0.159955
-0.204602
-0.238329
-0.226334
-0.169055
-0.15561
-0.172974
-0.159763
-0.121728
-0.0859398
-0.0651406
-0.0474152
-0.0207326
0.0117885
0.0409848
0.0628103
0.080652
0.0960668
0.106797
0.111592
0.110374
0.105691
0.100103
0.0926943
0.0817397
0.0695913
0.0600837
-0.0996608
-0.104606
-1.61866
-0.59547
1.72463
0.382393
-1.95607
-0.639548
0.343276
0.0681096
-0.606927
-0.287901
-0.161143
-0.264842
-0.288212
-0.245512
-0.262614
-0.270594
-0.260022
-0.234671
-0.228964
-0.240033
-0.220432
-0.185639
-0.169356
-0.156613
-0.129428
-0.0904407
-0.0476769
-0.00778987
0.0266943
0.057802
0.0875114
0.115412
0.139638
0.15885
0.173499
0.183589
0.186752
0.181952
0.17222
0.165657
0.949821
-0.716994
-0.223151
-1.69558
-1.3659
1.22944
0.509126
-1.02615
-0.917481
-0.000547714
-0.253519
-0.441204
-0.221454
-0.306791
-0.359342
-0.271294
-0.300843
-0.316814
-0.282926
-0.253792
-0.258735
-0.281331
-0.258547
-0.224548
-0.219111
-0.218696
-0.198944
-0.168837
-0.136308
-0.100295
-0.0586765
-0.0105142
0.0434944
0.0993467
0.149836
0.190019
0.22051
0.243257
0.25835
0.263248
0.259406
0.255169
-3.35074
0.770684
1.97235
0.44282
-1.4499
-1.69805
0.333766
0.470325
-0.505478
-0.816564
-0.22656
-0.386093
-0.210772
-0.359541
-0.481396
-0.27815
-0.285924
-0.352311
-0.314638
-0.285238
-0.28268
-0.301038
-0.286737
-0.257631
-0.248518
-0.242504
-0.229516
-0.215601
-0.200813
-0.179743
-0.146993
-0.0985501
-0.0335251
0.0432805
0.121287
0.189786
0.242422
0.285514
0.310898
0.325876
0.336205
0.340518
-0.993054
-0.142159
-1.64835
1.15786
1.24028
-1.61129
-1.53834
0.21774
0.3597
-0.670664
-0.553078
-0.398645
-0.144349
-0.335852
-0.512824
-0.310243
-0.314353
-0.36763
-0.326382
-0.307633
-0.314622
-0.317486
-0.304615
-0.291231
-0.27635
-0.259801
-0.246361
-0.232875
-0.216275
-0.197033
-0.172592
-0.139184
-0.093564
-0.0329734
0.043234
0.132614
0.224869
0.303484
0.36552
0.403613
0.425255
0.439374
1.79683
-0.8064
-2.70629
-1.19116
1.33803
0.946761
-1.42039
-1.32815
0.224696
-0.112142
-0.621261
-0.459114
-0.180139
-0.392345
-0.438942
-0.292772
-0.347974
-0.381405
-0.328458
-0.325199
-0.32985
-0.322086
-0.317479
-0.304947
-0.28243
-0.265479
-0.25499
-0.235929
-0.207816
-0.176332
-0.154205
-0.131386
-0.0967239
-0.0596583
-0.00739015
0.0574865
0.153334
0.256223
0.368431
0.450355
0.497698
0.521299
0.556252
-0.820219
-0.0170802
-1.08348
-1.47418
0.57242
0.335647
-0.972739
-0.611766
-0.0345366
-0.44553
-0.33871
-0.31145
-0.51435
-0.284176
-0.254307
-0.394384
-0.37129
-0.318937
-0.314917
-0.324931
-0.330086
-0.310633
-0.284565
-0.26755
-0.255178
-0.240962
-0.220874
-0.188378
-0.153908
-0.124669
-0.0995609
-0.0728247
-0.0445324
-0.0129502
0.0298034
0.0973269
0.201592
0.316479
0.421121
0.513658
0.578713
-1.52775
0.240176
-0.229043
0.75149
0.238021
-1.71802
-0.445848
0.247657
-0.311317
-0.567141
-0.303608
-0.132968
-0.466765
-0.430122
-0.195022
-0.344118
-0.393496
-0.297506
-0.306588
-0.309876
-0.291569
-0.293614
-0.287045
-0.264202
-0.245374
-0.232765
-0.213291
-0.184999
-0.153044
-0.123339
-0.095981
-0.0682421
-0.0394582
-0.0115839
0.0167128
0.0517169
0.0982404
0.160041
0.250271
0.351744
0.428444
0.499481
1.7457
-0.925585
-2.91829
-0.779543
1.74559
0.785292
-1.42081
-1.07425
0.297073
-0.295408
-0.381521
-0.236211
-0.418685
-0.259641
-0.221733
-0.402769
-0.300383
-0.191376
-0.27145
-0.307698
-0.256287
-0.238036
-0.240955
-0.231318
-0.21319
-0.19098
-0.168706
-0.145108
-0.119497
-0.0945465
-0.0682282
-0.0369448
-0.00292579
0.0289941
0.0591393
0.0918978
0.128297
0.16582
0.208821
0.261319
0.311163
0.366255
0.162464
-0.711131
0.204133
-0.331885
-0.961828
-0.0870612
0.0362382
-0.421499
-0.294899
-0.180653
-0.282372
-0.255955
-0.311234
-0.258236
-0.176052
-0.292191
-0.270743
-0.164402
-0.212953
-0.261587
-0.223875
-0.188197
-0.184979
-0.188095
-0.170332
-0.141036
-0.118585
-0.102227
-0.0845336
-0.0630147
-0.0360871
-0.00306523
0.0321079
0.0649369
0.0945605
0.121753
0.146465
0.167635
0.180572
0.188948
0.20562
0.200231
-1.36952
-0.16486
0.102129
1.43984
0.274679
-2.0429
-0.306664
0.634275
-0.300012
-0.393446
-0.151356
-0.139869
-0.201197
-0.24773
-0.150727
-0.16581
-0.200907
-0.163615
-0.168308
-0.181892
-0.162951
-0.143172
-0.136121
-0.128544
-0.112103
-0.0928313
-0.0764707
-0.0608178
-0.0429438
-0.0221376
0.00301068
0.0321028
0.0614192
0.0886908
0.113197
0.132948
0.145903
0.150521
0.140839
0.112433
0.0608678
0.0523137
0.136668
-0.739167
-1.40476
-0.06944
2.09331
-0.0771418
-1.46786
0.190931
0.249119
-0.28653
-0.154105
-0.0751565
-0.109129
-0.134222
-0.148279
-0.101489
-0.0835615
-0.133449
-0.128178
-0.0753986
-0.0626334
-0.0855327
-0.0894078
-0.0689945
-0.0473644
-0.0420087
-0.0396581
-0.0217377
0.00524763
0.026344
0.0425374
0.0603748
0.0792101
0.0970923
0.113088
0.122975
0.121212
0.104652
0.0698798
0.0173883
-0.05414
-0.0803953
-2.72068
1.17342
2.49027
0.659242
-1.84428
-1.28078
1.08763
0.676638
-0.425276
-0.403282
0.200254
-0.0311811
-0.0709177
0.0049418
-0.0738666
-0.0284466
0.0276447
-0.044655
-0.0583339
-0.00111155
0.01073
-0.0197836
-0.0266334
-0.00348385
0.0170594
0.0147001
0.0116932
0.0288682
0.0507705
0.0606547
0.0674991
0.0785864
0.0875873
0.0912872
0.0910367
0.0828056
0.0606621
0.0244751
-0.0243212
-0.0771069
-0.124791
-0.156489
-0.0665613
0.0583591
-0.776279
0.561328
1.31829
-0.712859
-0.453987
0.574155
0.0882686
-0.128823
0.149426
0.0225671
0.0400846
0.0720963
0.00296643
0.0675521
0.122832
0.0576884
0.0313758
0.0724844
0.0954269
0.0738069
0.0534999
0.0567143
0.0658788
0.0675591
0.0725698
0.0864474
0.0916506
0.0830289
0.0772346
0.0782557
0.0748946
0.0620952
0.0406258
0.0101147
-0.0277558
-0.0679564
-0.108793
-0.14648
-0.169065
-0.182718
-0.219353
-0.627779
-0.630749
0.789925
2.62477
-0.410144
-1.56234
0.456008
0.966046
-0.145424
0.0271218
0.280817
0.188376
0.0821117
0.142473
0.182699
0.156215
0.139456
0.133544
0.129218
0.139014
0.15538
0.153342
0.138882
0.129364
0.124462
0.121466
0.118214
0.108798
0.0913431
0.0725443
0.0545369
0.0321158
0.00257323
-0.0331094
-0.0709013
-0.105582
-0.134617
-0.159342
-0.181796
-0.198376
-0.200238
-2.31604
1.25647
-0.00741486
3.39541
1.11659
-2.58513
-1.36548
1.845
1.00393
-0.541479
0.330632
0.478669
0.182153
0.122131
0.30326
0.317266
0.219366
0.205639
0.227587
0.222219
0.214645
0.213294
0.198888
0.181012
0.174606
0.169852
0.153907
0.12901
0.102736
0.0748514
0.0446731
0.012863
-0.022219
-0.0597008
-0.0955673
-0.126169
-0.150818
-0.170628
-0.187152
-0.202172
-0.215931
-0.219082
1.58649
-0.0495132
-0.479577
-0.138042
-0.0262372
1.32822
0.314834
-0.123471
0.431479
0.402341
0.243278
0.382637
0.245426
0.198102
0.351737
0.324295
0.257433
0.279068
0.293477
0.277256
0.269977
0.261211
0.230739
0.203375
0.195045
0.186968
0.162239
0.12468
0.0853687
0.0479582
0.0122462
-0.023189
-0.0605128
-0.0970589
-0.127932
-0.152757
-0.174236
-0.192371
-0.206349
-0.217384
-0.227648
-0.232172
2.35393
0.333764
-0.0346527
-1.8933
-1.35914
3.64289
0.974084
-0.968826
0.121078
0.72827
0.260269
0.380755
0.333322
0.295034
0.357174
0.332438
0.315355
0.311112
0.288871
0.285605
0.297676
0.282418
0.241727
0.213708
0.204463
0.181266
0.144684
0.109826
0.0744968
0.0396335
0.00328231
-0.0353111
-0.0741397
-0.109023
-0.137109
-0.160543
-0.182876
-0.203092
-0.218204
-0.227461
-0.235411
-0.239801
-0.587591
0.79136
0.80568
0.925542
-0.170136
-0.153562
0.354762
0.996296
0.200423
0.0655503
0.461339
0.372854
0.290033
0.346319
0.335656
0.326105
0.330793
0.302922
0.28464
0.294688
0.293141
0.263484
0.23356
0.219177
0.199393
0.168944
0.136681
0.100261
0.0710566
0.043893
0.00742509
-0.030903
-0.0660536
-0.0974485
-0.125406
-0.15257
-0.179029
-0.202803
-0.220279
-0.230873
-0.23916
-0.242428
2.10946
-0.429469
-1.71128
0.743765
0.984172
1.11725
-0.180965
-0.520977
0.654225
0.633687
0.139255
0.291155
0.357473
0.317219
0.300893
0.317364
0.308657
0.274751
0.267242
0.277454
0.265821
0.232978
0.211374
0.20249
0.186335
0.158699
0.126634
0.102628
0.0831533
0.0539751
0.0163595
-0.0183299
-0.0471208
-0.0735257
-0.101285
-0.132306
-0.163127
-0.188597
-0.207987
-0.224564
-0.238012
-0.240992
-1.52465
0.665587
-0.761977
3.28475
1.00715
-1.5397
-0.560662
1.11904
0.551551
-0.0524538
0.308657
0.314458
0.255642
0.273259
0.272991
0.271538
0.25756
0.230429
0.220026
0.22575
0.218527
0.199309
0.188548
0.184242
0.173406
0.149499
0.124852
0.107242
0.088389
0.062079
0.0326091
0.00331689
-0.0247069
-0.049428
-0.0733737
-0.103632
-0.137246
-0.165337
-0.186898
-0.205519
-0.224022
-0.230448
-1.46704
0.953729
3.83244
0.369865
-3.55362
-1.67965
3.64433
1.08617
-1.1331
-0.0838968
0.516241
0.185699
0.209292
0.16041
0.148902
0.233191
0.197792
0.151799
0.184643
0.199887
0.162503
0.148057
0.159391
0.161987
0.143242
0.122866
0.116236
0.107056
0.0853563
0.0642303
0.0481542
0.0274597
0.000517757
-0.0245759
-0.0474655
-0.0752164
-0.105293
-0.130359
-0.15212
-0.174658
-0.199552
-0.208613
-0.522134
0.690119
3.17721
-1.26198
-3.25032
-0.800469
4.19697
0.365897
-1.80991
0.394758
0.476833
-0.0554552
0.20127
0.0979723
0.0619982
0.190645
0.0915395
0.070003
0.172442
0.156874
0.103597
0.110952
0.140425
0.140642
0.104349
0.0865613
0.0949458
0.091525
0.0705539
0.0573992
0.052529
0.0398849
0.018435
-0.00254923
-0.0226506
-0.0454655
-0.067935
-0.0882504
-0.111661
-0.137634
-0.161328
-0.172048
-0.716934
-0.3581
-0.458057
0.23641
2.97767
0.0508038
-1.80759
-1.26318
1.70842
0.481963
-0.516224
0.138017
0.194154
-0.0264074
0.0673011
0.123194
0.00875337
0.0548525
0.144959
0.0780382
0.0395712
0.0683831
0.0966445
0.0924071
0.0677162
0.0614678
0.0682987
0.0626973
0.0504285
0.0472858
0.0467847
0.0380741
0.0250222
0.0135051
0.000544992
-0.0151656
-0.0303405
-0.0475291
-0.0715167
-0.0954182
-0.111712
-0.122218
1.99886
-0.77969
-2.20073
0.413767
0.873706
1.3034
-0.896637
-0.85476
0.248795
0.613904
-0.30322
0.0265118
0.0567513
-0.0319414
0.0441617
0.0250023
0.000845401
0.0379985
0.0442506
0.0313817
0.0331186
0.0297444
0.0240735
0.0237028
0.0284557
0.0325074
0.0324906
0.0306356
0.0314915
0.0353881
0.0357469
0.0295533
0.0235226
0.0211675
0.0170202
0.00915828
0.00027678
-0.0125774
-0.0313718
-0.0481177
-0.0571964
-0.066976
-2.00107
0.467575
3.31637
0.452601
-3.13121
-0.777513
0.596569
1.66059
-0.403544
-0.88408
0.308188
0.0898301
-0.142503
-0.00647522
-0.0241141
-0.0266286
0.0229948
-0.0225406
-0.0397533
0.00459284
0.0115458
-0.0100458
-0.0155195
-0.00587684
-0.000913619
-0.00444701
-0.00256993
0.00646567
0.0121066
0.0135794
0.0152561
0.0170017
0.0195391
0.0234407
0.025502
0.0245816
0.0217231
0.015316
0.00630593
-0.000598968
-0.00374378
-0.0116672
-1.14641
0.49414
-0.810363
1.53996
0.952758
-1.55393
-0.870023
0.437353
0.661854
-0.527299
-0.122434
0.0522973
-0.0995925
-0.072843
-0.0810217
-0.0191011
-0.000363971
-0.073986
-0.0744243
-0.0386628
-0.0448296
-0.0472631
-0.0337711
-0.0212433
-0.0220415
-0.0284915
-0.0231262
-0.0102875
-0.00442397
-0.00454665
-0.00267531
0.00279028
0.0104302
0.0186982
0.0257957
0.0313537
0.0353049
0.0372092
0.0391699
0.041951
0.0436386
0.0385703
3.51144
-0.454361
-1.79724
-3.17152
-0.618187
2.6544
1.53798
-1.36558
-1.16502
0.416524
0.216206
-0.239714
-0.0834913
-0.0499772
-0.13407
-0.0622331
-0.0613415
-0.111245
-0.0721161
-0.0377031
-0.055781
-0.0621834
-0.0504134
-0.0453294
-0.0493889
-0.0474681
-0.0349045
-0.0234037
-0.0217206
-0.0214754
-0.0157933
-0.00725435
0.00132418
0.0106091
0.021565
0.0336369
0.0449531
0.0546924
0.0648456
0.0745297
0.0808114
0.0806588
-2.84105
0.560452
3.66337
0.562283
-3.2077
-1.03808
0.817095
1.35999
-0.529947
-1.05356
0.304861
0.024566
-0.169269
-0.106492
-0.0953634
-0.0379131
-0.101609
-0.11164
-0.0604994
-0.0735791
-0.085636
-0.0629839
-0.0565573
-0.0688576
-0.0709804
-0.057599
-0.040852
-0.0378178
-0.0392631
-0.0345947
-0.0265361
-0.0180913
-0.00815137
0.00407449
0.0188238
0.0357031
0.0526697
0.068031
0.0826178
0.0957054
0.105795
0.111518
-1.47075
0.0427375
-1.18107
2.865
1.38932
-2.32624
-1.31396
0.853489
0.78304
-0.659977
-0.402383
0.106285
-0.0742864
-0.189749
-0.0478627
-0.0732474
-0.14279
-0.0517363
-0.0666924
-0.129437
-0.0952291
-0.0483269
-0.0750347
-0.0941352
-0.0767104
-0.0547237
-0.0513341
-0.0588038
-0.0528774
-0.0407832
-0.034372
-0.0267768
-0.0133954
0.00255237
0.0197585
0.038275
0.0571328
0.0754611
0.0925302
0.106881
0.118793
0.128746
2.61843
-0.579328
-3.51016
-0.721871
-0.0833754
3.71823
-1.04952
-2.13635
-0.0668349
1.09471
-0.293825
-0.270759
-0.0410045
-0.123492
-0.0374882
-0.166701
-0.109729
-0.0116157
-0.147089
-0.150667
-0.0355754
-0.0592147
-0.123155
-0.11144
-0.0494305
-0.049368
-0.072666
-0.0697903
-0.0495152
-0.0433715
-0.0431165
-0.0300846
-0.0106872
0.00632318
0.0223119
0.0390056
0.0568267
0.0763712
0.0951444
0.109748
0.121319
0.132547
1.44165
0.352252
0.339133
-2.88849
-0.594607
0.0766625
2.21643
-0.445162
-1.34766
0.003662
0.443436
-0.272935
-0.171113
-0.0347568
-0.128007
-0.158703
-0.0088564
-0.103095
-0.17616
-0.0644379
-0.0451121
-0.120438
-0.118203
-0.0618859
-0.0562244
-0.0826208
-0.0789743
-0.0510144
-0.0408513
-0.0480547
-0.0408553
-0.0220788
-0.00612523
0.00797882
0.0235688
0.0386935
0.0542848
0.072375
0.0914165
0.105313
0.114346
0.124425
-3.77672
1.27933
3.81288
0.545731
-3.00629
-1.15136
0.121319
1.96284
-0.408205
-1.10197
0.247585
0.0722979
-0.234806
-0.0448105
-0.165581
-0.0789113
-0.00270507
-0.213161
-0.139978
0.0448433
-0.0814159
-0.157342
-0.0827651
-0.0158518
-0.0795607
-0.107876
-0.0588182
-0.0330785
-0.0463944
-0.0464564
-0.0259477
-0.0095212
-0.00245444
0.00691766
0.020312
0.0363017
0.0526821
0.0664374
0.078177
0.0902495
0.101226
0.110135
-0.854315
-0.863334
-0.553839
-0.606541
4.34951
-0.123632
-2.50013
-1.24715
1.21032
0.298429
-0.2713
-0.192278
-0.119551
-0.0532246
-0.180194
-0.0325122
-0.0837919
-0.206922
-0.0599895
-0.00703142
-0.114185
-0.109483
-0.0327385
-0.0423694
-0.0871408
-0.0666455
-0.0265764
-0.0412809
-0.0485753
-0.0266309
-0.0119486
-0.00700648
-0.00324783
0.00445613
0.0158439
0.0316388
0.0477151
0.0573924
0.0626258
0.0712642
0.0818498
0.0906474
0.627152
-2.35637
-1.03986
-0.470212
4.81112
1.05066
-4.04472
-2.11295
2.97754
0.402767
-1.04166
-0.143254
0.0567416
-0.107124
-0.0438405
-0.0398908
-0.154587
-0.0721457
0.0132623
-0.0870935
-0.116635
-0.0457811
-0.0225837
-0.0614753
-0.0649216
-0.0227528
-0.0209352
-0.0460624
-0.0383196
-0.0118483
-0.00320963
-0.00536345
-0.00475807
0.00197421
0.0123927
0.0248535
0.0361847
0.0424685
0.0456161
0.0522277
0.0608839
0.0689333
-1.40012
0.476991
3.00688
-0.0474743
-3.03622
-1.1446
2.13104
0.637289
-0.891534
-0.397182
0.17531
-0.0303741
-0.173052
-0.0259462
-0.0176104
-0.0947912
0.00730181
-0.0422776
-0.141105
-0.0530698
0.0341738
-0.0445592
-0.0989708
-0.0470648
0.017625
-0.00707011
-0.0444335
-0.0293393
-0.00453827
-0.00462292
-0.0103569
-0.00751107
-0.000760687
0.00401548
0.00776696
0.0126498
0.0193011
0.0255473
0.0294425
0.0338735
0.0401795
0.0478272
-3.22455
1.09023
3.82695
0.606233
-3.05276
-1.26781
0.0598712
2.24836
-0.189334
-1.1551
0.169809
0.132363
-0.0729693
0.0906902
-0.190021
-0.168259
0.207066
-0.011442
-0.221296
-0.0621576
0.175209
-0.033613
-0.142632
-0.039648
0.0723842
-0.00741084
-0.0578811
-0.00539687
0.0256395
0.00294932
-0.017786
-0.0127571
5.39356e-05
0.00586623
0.00452869
0.000285677
0.00133515
0.00921636
0.0153888
0.0175078
0.0211917
0.0282192
-1.76319
0.908769
-1.00305
3.21927
0.543148
-2.77304
-1.5029
2.45032
0.334677
-0.885348
0.0696607
3.41068e-05
-0.0554431
0.137571
-0.247376
-0.0637931
0.296152
-0.126432
-0.191264
0.142993
0.107398
-0.0873826
-0.0887211
0.041467
0.0546195
-0.0313821
-0.0360126
0.02314
0.0296076
0.002662
-0.0129792
-0.0119947
-0.00455308
0.00169683
0.000448936
-0.00824579
-0.0117683
-0.00449849
0.00226349
0.00287051
0.00447833
0.00945065
-2.54566
1.41225
-0.0517543
3.26269
0.478535
-3.74296
-1.42495
3.2047
0.516602
-1.19777
-0.0777086
0.182141
-0.0791967
-0.00911443
-0.0531032
0.17018
0.145255
-0.237293
-0.116664
0.274764
0.0658323
-0.10634
-0.0393848
0.0805349
0.0308398
-0.0261596
0.00298794
0.0334674
0.0197469
0.00421127
-0.00250854
-0.00982043
-0.00909913
-0.00228009
-0.0038536
-0.0137718
-0.0186114
-0.0145609
-0.010641
-0.0103763
-0.00938909
-0.00776874
-2.42413
1.78997
-0.155597
2.29013
0.349503
-2.55782
-0.9869
2.21017
0.0401887
-0.744987
0.2765
0.0469936
-0.0586722
0.0905419
-0.0281429
0.221152
0.0379159
-0.203626
0.00550198
0.26296
-0.00206366
-0.0881578
0.0550567
0.0947129
0.00261877
-0.0172937
0.0315124
0.0313091
0.0115413
0.00881184
0.00549575
-0.00317926
-0.00516013
-0.00527776
-0.0117923
-0.0183028
-0.0197308
-0.02011
-0.0213352
-0.0214613
-0.0208719
-0.0224171
-0.252334
-1.28267
-0.411443
-0.533197
4.65135
0.563875
-3.87979
-1.47532
2.96531
0.767102
-0.894757
-0.271632
0.447054
-0.0815512
-0.112611
0.29841
0.00488075
-0.0752727
0.156741
0.0257899
-0.0721688
0.0328345
0.11658
0.0370624
-0.0168537
0.0195273
0.0486604
0.0289397
0.0125707
0.00905137
0.004909
0.0027294
0.00143487
-0.00697715
-0.0175656
-0.0204123
-0.0201874
-0.0238821
-0.0274873
-0.0284583
-0.0300524
-0.0339008
1.39677
0.241512
-0.623585
0.382558
-0.887666
0.907756
-0.330048
-0.92605
0.662952
0.993416
-0.650437
-0.17961
0.366511
-0.0997462
0.0206179
0.121622
-0.0250453
0.0667238
0.0854757
0.00180372
0.0389462
0.0958836
0.0522885
0.00740618
0.0222611
0.04653
0.0381025
0.0244599
0.0174468
0.0114633
0.00859029
0.00732199
0.00107276
-0.0104859
-0.0181429
-0.0189453
-0.0214035
-0.0271337
-0.0304206
-0.0322739
-0.0358431
-0.0400143
-1.4301
0.718482
-1.14674
2.45928
1.35301
-2.49731
-0.927006
1.11871
1.31032
-0.679589
-0.579412
0.514483
0.110229
-0.0194395
0.0495332
-0.0439201
0.0884701
0.151596
0.0292552
0.0155053
0.0721475
0.0548038
0.0143807
0.0143421
0.036158
0.0463957
0.0437626
0.032407
0.0180165
0.0124071
0.0123438
0.00734925
-0.00102721
-0.00856393
-0.0136121
-0.0175447
-0.0234676
-0.0294504
-0.0329235
-0.0357317
-0.0382546
-0.0398746
2.96256
-1.62395
-3.7077
-0.535452
4.74943
0.810741
-2.75857
-1.01116
1.76829
0.336583
-0.629985
0.229962
0.142808
-0.0228289
0.00288728
0.0619864
0.0307066
0.0306871
0.113501
0.0946115
0.00336588
-0.00520759
0.0528994
0.0734038
0.0386976
0.0204026
0.033579
0.0353762
0.0220427
0.0138864
0.0089672
0.00331113
-0.000981638
-0.00446355
-0.00912726
-0.016096
-0.0228745
-0.0282877
-0.0330475
-0.0367054
-0.03841
-0.0386353
-2.38498
0.837599
3.48489
0.56538
-2.86021
-1.14235
0.0204228
2.5163
0.0137327
-0.962549
0.0839261
0.117078
0.0452818
0.00385698
0.0738589
0.107559
0.01566
0.0307916
0.0682387
0.00316984
-0.0140898
0.0529054
0.0953907
0.0549841
0.00423611
0.0126686
0.0445718
0.03418
0.0142782
0.0119793
0.0117655
0.00598393
0.000876273
-0.00220906
-0.00698006
-0.014106
-0.0209296
-0.0261255
-0.0306456
-0.0337141
-0.0358649
-0.0376275
-2.33208
1.46483
-1.22739
4.04116
1.05184
-3.38785
-0.992435
0.938746
1.64941
-0.182493
-1.06959
0.345518
0.0517966
-0.0860747
0.310915
0.0139411
-0.179355
0.0160447
0.0579544
0.0379471
0.0806142
0.0736265
0.0193717
-0.00170017
0.0161578
0.0354924
0.0340872
0.0226786
0.0197496
0.0177513
0.00983868
0.002058
-0.000112937
0.000272882
-0.00368929
-0.0117185
-0.0188888
-0.0232883
-0.0259405
-0.0284352
-0.0314024
-0.0347688
3.61032
-1.00228
-3.31074
-0.416297
-0.23848
3.2395
-0.563213
-2.04112
0.723846
0.812133
-0.255765
0.00378506
-0.266142
-0.0445565
0.229035
-0.178392
0.0775721
0.426122
-0.123915
-0.234228
0.131101
0.163688
-0.0419556
-0.0640667
0.0453992
0.0488739
0.00548923
0.00877604
0.0318859
0.0261208
0.00579487
-0.00228417
-0.000888363
0.000986782
-0.00216036
-0.00928441
-0.0156226
-0.0189859
-0.0205798
-0.0228128
-0.0257934
-0.0295522
-3.58191
1.06826
3.87224
0.936008
-2.46021
-1.05695
-0.0418702
1.60416
-0.205042
-0.905346
0.422577
0.296544
-0.275564
0.187513
0.0528095
-0.369932
0.126823
0.486847
-0.236458
-0.311404
0.209601
0.127534
-0.0741404
-0.038492
0.085808
0.0270582
-0.0188587
0.0178283
0.038905
0.0165095
-0.0069804
-0.00655958
0.00322457
0.00418901
-0.0024863
-0.008765
-0.0123575
-0.0146432
-0.0163556
-0.0177416
-0.0188163
-0.0217616
-1.54338
1.24755
-1.69429
2.56773
1.06072
-2.32187
-1.59062
2.86951
0.326006
-1.5803
-0.127681
0.766028
-0.0438283
-0.148806
-0.101197
-0.0374526
0.270941
0.0194317
-0.240536
-0.0226328
0.172762
-0.00728265
-0.0820644
0.00595359
0.0611996
-0.00342303
-0.0204487
0.0232656
0.0315461
0.00968486
-0.00504498
-0.000824408
0.00482083
0.000366814
-0.00569681
-0.00757783
-0.00848931
-0.0108873
-0.0127284
-0.0125072
-0.0107248
-0.0123768
1.30882
0.6864
0.837796
-3.83949
-0.950741
1.04326
2.99563
-1.2621
-1.44068
0.687369
0.254557
-0.124968
-0.0269996
-0.113681
-0.00739049
0.095646
0.0562585
-0.0947142
-0.0943462
0.0510608
0.0685434
-0.0281584
-0.0431764
0.0271098
0.0540794
-0.0119683
-0.0310044
0.0129476
0.0254769
0.00443059
-0.00696836
0.00306382
0.00739356
-0.00395637
-0.00977896
-0.00723227
-0.00604953
-0.0081397
-0.00847566
-0.00587756
-0.00165854
-0.00239772
1.81078
0.548359
0.573225
-4.65021
-0.538311
1.32982
3.68498
-1.44518
-2.85449
1.19371
1.31755
-0.564549
-0.418691
0.109928
0.166144
-0.0861846
-0.138394
0.162465
0.0298301
-0.116757
-0.00131168
0.039539
-0.0261506
-0.0240698
0.0193828
-0.0133734
-0.0274079
0.01261
0.0201904
-0.0023121
-0.00497342
0.00902375
0.0048564
-0.010157
-0.011421
-0.005522
-0.00413066
-0.00543539
-0.00333746
0.00153305
0.00756431
0.00755512
-2.61137
0.777014
-0.596727
3.8507
0.560735
-2.96222
-1.23435
1.7265
0.172642
-0.120359
0.12341
-0.323969
-0.115115
0.0265798
0.132657
-0.230672
-0.0801905
0.322139
-0.065014
-0.193662
0.0644125
0.0405711
-0.0731828
-0.0523633
0.0209563
0.00105578
-0.0156348
0.0080651
0.0105839
-0.00206459
-0.000970667
0.0026893
-0.00420841
-0.00950556
-0.00605876
-0.00271109
-0.00349868
-0.00299222
0.00152586
0.00794994
0.015581
0.0161961
-0.787971
-1.54971
-0.103676
0.187142
4.04904
-0.130729
-3.34715
-1.00156
2.95165
0.161466
-1.59693
0.083854
0.435509
0.0184726
0.0447567
-0.347483
0.10591
0.351467
-0.28254
-0.302169
0.267934
0.0358247
-0.14978
-0.0678596
0.0744377
0.00987578
-0.0421858
-0.0112199
0.00784164
0.00309374
-0.00177876
-0.00887113
-0.0118949
-0.00537942
0.00190117
6.11478e-05
-0.00312903
-0.000874637
0.00564903
0.0133365
0.0223441
0.0233276
2.25243
-0.875163
-4.06868
0.0797651
2.65766
2.56399
-1.47627
-2.73216
0.757233
1.47867
-0.456861
-0.220195
-0.0946975
0.12893
-0.0653118
-0.32934
0.40994
0.163692
-0.47302
-0.287709
0.469846
-0.00789709
-0.248727
-0.122762
0.1817
0.022237
-0.102295
-0.02864
0.0278277
0.00504358
-0.0136808
-0.0134597
-0.00915635
-0.000859952
0.00390957
0.000257806
-0.00222983
0.00166768
0.0099447
0.0179567
0.0272347
0.0276356
-4.04897
0.475487
6.71637
1.17072
-5.42897
-2.18551
3.22617
1.34146
-1.92051
-0.482858
0.860478
-0.13238
-0.239615
0.195314
-0.0512038
-0.281083
0.200247
-0.0520254
-0.239677
0.113147
0.169013
-0.200615
-0.171598
0.142175
0.124999
-0.101702
-0.107568
0.0196049
0.0197055
-0.0117537
-0.00997045
-0.00775956
-0.00707729
-0.000624276
0.00224591
-0.000280608
-0.00094908
0.00517238
0.0131269
0.0198925
0.0290783
0.0296797
0.570403
0.750324
1.6091
-1.16067
-4.78859
-0.746389
4.96005
1.79896
-3.12365
-1.47537
1.07061
0.804692
-0.669771
0.0869513
0.0827449
-0.00934091
0.0249279
-0.246309
-0.00337174
0.327498
-0.139602
-0.234786
0.0479167
0.171236
-0.0548378
-0.112673
0.00718691
0.0340819
-0.0132399
-0.0147353
-0.000427323
-0.0052504
-0.0051751
5.4977e-05
0.000273509
-0.00346033
-0.00103316
0.00896438
0.0161099
0.0199713
0.028201
0.0298909
2.10788
0.202575
-0.440862
-4.06984
-0.374409
2.77211
3.03462
-2.81343
-2.54147
1.88612
1.21382
-0.817218
-0.29987
0.0241483
0.0123043
0.203625
-0.239476
-0.151409
0.374196
0.0115781
-0.259883
-0.0866106
0.202884
-0.0218463
-0.12532
-0.0051914
0.0582675
-0.00988878
-0.0264721
0.00740509
0.00268774
-0.00925388
-0.00376232
0.0023662
0.00159265
-0.000916147
0.00238738
0.00929929
0.0142091
0.0186839
0.0260933
0.0291487
1.09966
0.786279
1.57879
-4.98355
-2.92684
3.81623
4.22154
-3.7769
-1.99648
2.28685
0.552025
-1.00738
0.1857
-0.0630242
0.111078
0.107067
-0.253804
0.0586142
0.133733
-0.144919
-0.03007
0.102024
-0.0533533
-0.0936336
0.0173821
0.0548468
-0.0250009
-0.0415721
0.00856725
0.0126357
-0.00337315
0.000367082
0.00612405
0.00310937
-0.000763494
0.000885049
0.00574097
0.0076315
0.011024
0.0174714
0.0228651
0.0279789
4.91083
-1.91957
-3.14554
-1.40865
-1.50091
6.41944
-1.06182
-3.91179
1.11678
1.91646
-1.31409
-0.219176
0.396192
-0.0953233
0.0702689
-0.0874607
-0.0692012
0.0111414
-0.0792986
0.0828271
0.123526
-0.146889
-0.149547
0.0658915
0.107983
-0.0380393
-0.0768989
0.007345
0.0319684
-0.00456155
-0.00993797
0.00667386
0.00804584
0.00255546
0.000222349
0.00304394
0.00664478
0.00572927
0.00881596
0.0159904
0.0177584
0.0255677
6.87914
-2.09137
-7.35191
-0.561866
2.29132
5.24862
-2.27549
-4.49994
3.24722
0.869134
-1.65559
0.212483
0.37615
-0.119191
-0.0133032
-0.0939126
0.0438033
-0.072613
-0.0205669
0.172695
-0.0660154
-0.172368
0.00573179
0.116235
-0.00173627
-0.0713555
-0.0146575
0.0295542
0.000571023
-0.00725603
0.010973
0.00996313
-0.000236832
-0.00280497
0.000905691
0.0052104
0.00644651
0.0046496
0.00835602
0.0143467
0.010072
0.0207214
5.65164
-3.33732
-8.4983
-0.187779
9.62511
2.26671
-6.90483
-1.30332
3.76071
-0.355686
-1.43407
0.824353
0.168229
-0.298101
0.0307647
0.0745837
-0.119028
-0.0920046
0.183043
0.0142831
-0.191163
-0.0290657
0.127978
0.00847946
-0.0684719
-0.0153227
0.0334337
-0.001472
-0.0133531
0.0173765
0.0188983
-0.000331048
-0.00691598
-0.00218669
0.00377997
0.00744349
0.00634481
0.00462554
0.00856533
0.0118973
0.000270186
0.0131733
0.222297