/*--------------------------------*- C++ -*----------------------------------*\
| =========                 |                                                 |
| \\      /  F ield         | OpenFOAM: The Open Source CFD Toolbox           |
|  \\    /   O peration     | Version:  2406                                  |
|   \\  /    A nd           | Website:  www.openfoam.com                      |
|    \\/     M anipulation  |                                                 |
\*---------------------------------------------------------------------------*/
FoamFile
{
    version     2.0;
    format      ascii;
    arch        "LSB;label=32;scalar=64";
    class       volScalarField;
    location    "0.109";
    object      ddt0(rhoY);
}
// * * * * * * * * * * * * * * * * * * * * * * * * * * * * * * * * * * * * * //

dimensions      [1 -3 -1 0 0 0 0];

internalField   nonuniform List<scalar> 
8988
(
7.35246e-68
5.48696e-67
2.8528e-67
-6.40838e-67
-1.93355e-68
6.22885e-67
5.62751e-67
1.97839e-67
1.6404e-68
1.0179e-67
2.17571e-67
1.75818e-67
1.45795e-67
1.2076e-67
1.17123e-67
1.09655e-67
9.36286e-68
7.73814e-68
6.88375e-68
6.84672e-68
7.29126e-68
8.0688e-68
9.20501e-68
1.06709e-67
1.25577e-67
1.47471e-67
1.69369e-67
1.89792e-67
2.07158e-67
2.16587e-67
2.14494e-67
2.01053e-67
1.76466e-67
1.34547e-67
6.75356e-68
-2.48634e-68
-1.38998e-67
-2.75149e-67
-4.31452e-67
-5.97539e-67
-8.1973e-67
-1.11343e-66
-4.34387e-68
4.09222e-67
1.96302e-66
-1.8575e-66
-1.26664e-66
3.1978e-66
1.39538e-66
-1.86368e-66
-2.35429e-67
1.35554e-66
5.13028e-67
-9.9157e-68
1.73682e-67
3.50819e-67
2.11939e-67
1.53858e-67
1.49049e-67
1.2503e-67
1.03657e-67
9.04195e-68
8.17588e-68
8.06956e-68
8.56002e-68
9.59687e-68
1.12816e-67
1.34411e-67
1.55808e-67
1.77065e-67
2.02162e-67
2.091e-67
1.83234e-67
1.3298e-67
6.0221e-68
-5.50272e-68
-2.19321e-67
-4.20786e-67
-6.58087e-67
-9.42323e-67
-1.25599e-66
-1.57335e-66
-1.78161e-66
-1.89035e-66
-3.58382e-66
1.44595e-66
4.71973e-66
1.70242e-66
-3.38834e-66
-1.56532e-66
2.86619e-66
2.35724e-66
-1.0748e-66
-7.90201e-67
1.24756e-66
7.24626e-67
9.06842e-68
2.37135e-67
3.5011e-67
2.42656e-67
2.04424e-67
1.87436e-67
1.60291e-67
1.35487e-67
1.15339e-67
1.00051e-67
8.93633e-68
8.37699e-68
8.60734e-68
9.65737e-68
1.08731e-67
1.17987e-67
1.24297e-67
1.12731e-67
7.47136e-68
-3.74062e-69
-1.43369e-67
-3.33011e-67
-5.79123e-67
-8.70045e-67
-1.1771e-66
-1.46771e-66
-1.70629e-66
-1.88847e-66
-1.95835e-66
-2.07951e-66
-3.46981e-66
1.59508e-66
3.98956e-66
1.65404e-66
-1.07122e-66
-2.75179e-66
5.36934e-67
4.59626e-66
1.87748e-67
-1.66375e-66
4.58562e-67
1.57558e-66
2.12596e-67
1.26377e-67
4.47447e-67
3.4296e-67
2.63114e-67
2.47175e-67
2.17268e-67
1.85054e-67
1.56853e-67
1.28677e-67
1.01405e-67
7.7645e-68
5.82348e-68
4.06259e-68
1.93949e-68
-9.45971e-69
-4.99071e-68
-1.11241e-67
-1.9988e-67
-3.23066e-67
-4.95516e-67
-7.19732e-67
-9.93718e-67
-1.27981e-66
-1.52867e-66
-1.702e-66
-1.80322e-66
-1.86513e-66
-1.94988e-66
-2.02742e-66
-2.4096e-67
1.14419e-66
-1.29102e-66
9.96056e-67
3.29088e-66
2.5688e-67
-1.98424e-66
7.13221e-67
2.04926e-66
7.19309e-68
-5.19093e-68
7.35192e-67
4.6857e-67
3.52002e-67
3.91248e-67
3.39145e-67
3.03264e-67
2.76438e-67
2.41856e-67
2.09998e-67
1.80004e-67
1.46678e-67
1.11021e-67
7.72456e-68
4.13619e-68
-2.31e-69
-5.36277e-68
-1.12951e-67
-1.96031e-67
-3.08088e-67
-4.43173e-67
-6.097e-67
-8.08379e-67
-1.02694e-66
-1.25656e-66
-1.48168e-66
-1.65228e-66
-1.7302e-66
-1.7226e-66
-1.67008e-66
-1.68111e-66
-1.83155e-66
3.01014e-66
-2.73675e-67
-1.41974e-66
-1.34777e-66
5.81027e-68
4.18111e-66
9.31894e-67
-2.64821e-66
-2.55437e-67
2.23923e-66
4.78963e-67
-2.09723e-67
4.6129e-67
3.99189e-67
2.5476e-67
2.68447e-67
2.63928e-67
2.41464e-67
2.16078e-67
1.91881e-67
1.69925e-67
1.43412e-67
1.13283e-67
8.66289e-68
5.38739e-68
7.77246e-69
-4.43925e-68
-1.0414e-67
-1.87795e-67
-2.88079e-67
-3.98112e-67
-5.23966e-67
-6.66384e-67
-8.18934e-67
-9.7357e-67
-1.12855e-66
-1.237e-66
-1.33494e-66
-1.36266e-66
-1.34805e-66
-1.35765e-66
-1.47544e-66
1.14863e-66
-4.44248e-67
1.79383e-66
3.83003e-67
-3.03863e-66
-7.78851e-67
3.9246e-66
6.61781e-67
-1.56342e-66
1.22036e-67
7.65403e-67
-1.18335e-68
9.37631e-68
2.78593e-67
1.567e-67
9.95667e-68
1.22248e-67
1.3599e-67
1.29581e-67
1.1828e-67
1.16044e-67
1.1297e-67
1.05318e-67
1.04117e-67
1.03856e-67
9.72355e-68
9.16441e-68
8.59964e-68
7.18587e-68
5.21912e-68
2.95545e-68
-5.96662e-69
-5.59441e-68
-1.1789e-67
-1.97856e-67
-3.09356e-67
-4.58811e-67
-6.41194e-67
-7.8428e-67
-8.54346e-67
-9.19577e-67
-1.05473e-66
-1.92768e-66
7.49111e-67
-3.7996e-68
1.93779e-66
1.41021e-66
-2.41185e-66
-1.32097e-66
1.75834e-66
7.83994e-67
-8.26513e-67
-1.37635e-67
1.0687e-67
-5.22751e-68
1.19384e-67
1.1801e-68
-6.11401e-68
-3.97089e-69
3.07016e-68
3.13344e-68
2.83129e-68
4.43615e-68
6.64312e-68
8.98704e-68
1.24459e-67
1.66614e-67
2.12376e-67
2.67161e-67
3.28788e-67
3.94258e-67
4.6906e-67
5.49267e-67
6.18695e-67
6.69808e-67
6.88837e-67
6.55756e-67
5.55117e-67
3.61862e-67
7.6682e-68
-2.23304e-67
-4.21363e-67
-5.10944e-67
-5.52359e-67
2.19629e-66
-6.77845e-67
-2.29959e-66
-1.33354e-66
1.42489e-66
1.9132e-66
-1.17187e-66
-1.87782e-66
6.03424e-67
7.45087e-67
-5.52167e-67
-4.35749e-67
3.36708e-68
-6.82738e-68
-1.56032e-67
-1.05443e-67
-6.84587e-68
-4.8856e-68
-2.10323e-68
5.60253e-69
2.82678e-68
6.09107e-68
1.01395e-67
1.40962e-67
1.86966e-67
2.45812e-67
3.18154e-67
4.01699e-67
4.99096e-67
6.1579e-67
7.46055e-67
8.77259e-67
9.96596e-67
1.07729e-66
1.09037e-66
1.01363e-66
8.38867e-67
5.79335e-67
2.8764e-67
2.89338e-68
-1.66057e-67
-2.2238e-67
-3.55056e-66
9.88117e-67
2.79046e-66
8.15871e-67
-1.96262e-66
-1.94977e-66
1.07385e-66
8.71562e-67
-7.08819e-67
-5.04166e-67
-5.72183e-68
-1.16474e-67
-8.29006e-68
-1.44234e-67
-7.51228e-68
1.50144e-68
5.80635e-69
1.59881e-68
6.28218e-68
9.97483e-68
1.16297e-67
1.32113e-67
1.4329e-67
1.41115e-67
1.32533e-67
1.27188e-67
1.27044e-67
1.37635e-67
1.71648e-67
2.35762e-67
3.24856e-67
4.33907e-67
5.56293e-67
6.73365e-67
7.62831e-67
8.06083e-67
8.01145e-67
7.52977e-67
6.51168e-67
4.78804e-67
2.69286e-67
1.36493e-67
-7.99995e-68
1.47215e-68
-2.8096e-66
-7.62767e-67
3.04174e-66
8.78284e-67
-3.33372e-66
-9.8128e-67
1.15817e-66
4.1565e-67
-7.28937e-67
-5.36377e-68
2.46463e-67
9.51962e-68
1.08676e-67
2.17858e-67
2.50854e-67
2.74408e-67
3.05282e-67
3.17126e-67
3.02303e-67
2.68684e-67
2.10599e-67
1.21176e-67
6.7712e-69
-1.31295e-67
-2.89342e-67
-4.50571e-67
-5.92303e-67
-6.96296e-67
-7.5173e-67
-7.48441e-67
-6.75035e-67
-5.25827e-67
-3.06459e-67
-3.23469e-68
2.69959e-67
5.65122e-67
8.13215e-67
9.54751e-67
9.73608e-67
9.12052e-67
2.2167e-66
-1.43659e-66
-2.19988e-67
-2.58433e-66
-1.9589e-66
2.34368e-66
1.3407e-66
-1.5693e-66
-1.27823e-66
6.56893e-67
2.16456e-67
-1.21894e-67
3.57781e-67
3.7675e-67
3.30091e-67
5.03294e-67
5.58138e-67
5.69329e-67
5.9872e-67
5.86243e-67
5.24205e-67
4.28379e-67
2.86785e-67
9.04106e-68
-1.53683e-67
-4.47212e-67
-7.88921e-67
-1.16067e-66
-1.53821e-66
-1.89109e-66
-2.17863e-66
-2.35102e-66
-2.35611e-66
-2.15902e-66
-1.76971e-66
-1.23667e-66
-6.13475e-67
5.77697e-68
7.10904e-67
1.21697e-66
1.52219e-66
1.68963e-66
-6.0107e-66
1.68931e-66
3.53735e-66
8.14534e-67
-2.32034e-66
-2.72074e-66
9.78019e-67
1.47961e-66
-5.43238e-67
-8.69193e-67
4.5319e-67
1.92542e-67
4.74234e-67
5.21226e-67
4.08738e-67
7.01007e-67
8.04181e-67
7.69535e-67
8.0017e-67
7.84049e-67
6.91612e-67
5.48972e-67
3.44457e-67
6.50025e-68
-2.84328e-67
-7.02924e-67
-1.18625e-66
-1.72043e-66
-2.28552e-66
-2.8485e-66
-3.35447e-66
-3.72331e-66
-3.85814e-66
-3.67632e-66
-3.15691e-66
-2.35312e-66
-1.34315e-66
-1.84543e-67
9.12368e-67
1.84381e-66
2.51655e-66
2.80497e-66
-1.85173e-66
1.62974e-67
-2.66372e-66
1.90921e-66
2.19639e-66
-2.52969e-66
-2.44093e-66
9.61283e-67
1.22379e-66
-6.09512e-67
-2.23732e-67
2.19066e-67
6.04693e-67
5.35747e-67
3.85873e-67
6.9252e-67
8.12852e-67
7.96284e-67
8.33348e-67
8.19407e-67
7.29382e-67
5.80994e-67
3.60494e-67
5.83251e-68
-3.27219e-67
-7.92675e-67
-1.32905e-66
-1.92181e-66
-2.54682e-66
-3.17033e-66
-3.74565e-66
-4.20719e-66
-4.46882e-66
-4.43133e-66
-4.00191e-66
-3.11722e-66
-1.81156e-66
-3.18651e-67
1.25722e-66
2.61589e-66
3.57907e-66
4.03768e-66
3.93763e-66
-1.43409e-66
-4.62216e-66
-1.63827e-66
2.42341e-66
1.95654e-66
-2.22286e-66
-2.08291e-66
9.88213e-67
4.25706e-67
-4.78336e-67
-7.54097e-68
4.78575e-67
3.00128e-67
2.82522e-67
5.50192e-67
6.03096e-67
6.20085e-67
6.85591e-67
6.8466e-67
6.23153e-67
5.10566e-67
3.30572e-67
7.40825e-68
-2.61523e-67
-6.71429e-67
-1.1487e-66
-1.67873e-66
-2.23017e-66
-2.76991e-66
-3.27443e-66
-3.68374e-66
-3.92807e-66
-3.98343e-66
-3.75228e-66
-3.08216e-66
-1.93307e-66
-3.51748e-67
1.49619e-66
3.24576e-66
4.52147e-66
5.20061e-66
1.28176e-66
-1.49497e-66
3.81724e-67
-1.54364e-66
-2.1832e-66
1.21002e-66
9.40182e-67
-1.45986e-66
-8.24009e-67
4.46684e-67
-2.74383e-67
-1.54438e-67
1.05693e-67
-1.28925e-67
1.6327e-67
3.29471e-67
2.50717e-67
3.21033e-67
4.14267e-67
4.31382e-67
4.14874e-67
3.67714e-67
2.67558e-67
1.06747e-67
-1.11297e-67
-3.84614e-67
-7.11912e-67
-1.0848e-66
-1.47254e-66
-1.84208e-66
-2.17527e-66
-2.45033e-66
-2.62173e-66
-2.65645e-66
-2.5223e-66
-2.13957e-66
-1.35924e-66
-6.40363e-68
1.57622e-66
3.27649e-66
4.78663e-66
5.89049e-66
-3.30333e-66
1.09417e-66
-2.9898e-67
1.16298e-66
4.89963e-67
-2.73788e-66
-5.50356e-67
7.47137e-67
-3.20101e-67
-7.72672e-67
-2.58664e-67
6.34103e-68
-3.68084e-67
-3.37285e-67
2.7835e-68
-5.042e-68
-7.31707e-68
6.75239e-68
1.27288e-67
1.60557e-67
1.97217e-67
2.11413e-67
1.95759e-67
1.45441e-67
6.02963e-68
-5.93996e-68
-2.12857e-67
-3.91569e-67
-5.80099e-67
-7.62647e-67
-9.24438e-67
-1.04857e-66
-1.11338e-66
-1.10274e-66
-9.95808e-67
-7.45167e-67
-2.98077e-67
4.15573e-67
1.6134e-66
2.86739e-66
4.02199e-66
5.08851e-66
3.65622e-66
-1.43996e-66
-4.92523e-66
-1.05277e-66
2.89293e-66
1.42347e-66
-2.37577e-66
-1.71773e-66
8.67106e-67
-3.26364e-67
-5.62665e-67
-1.5984e-67
-4.36598e-67
-2.65848e-67
-1.27354e-67
-2.84738e-67
-1.77573e-67
-4.042e-68
-3.71851e-68
-9.26266e-70
6.63465e-68
1.11696e-67
1.44725e-67
1.67666e-67
1.7466e-67
1.651e-67
1.42075e-67
1.08074e-67
6.75228e-68
2.50818e-68
-9.20335e-69
-1.65485e-68
1.66387e-68
8.96106e-68
2.10831e-67
4.14298e-67
7.1455e-67
1.07379e-66
1.50493e-66
2.30248e-66
3.07743e-66
3.78201e-66
4.59178e-67
-1.29617e-66
8.36348e-67
-2.59349e-67
-1.38743e-66
2.83868e-69
1.94422e-67
-5.69548e-67
-3.41295e-67
-9.45062e-68
-2.86778e-67
-2.40196e-67
-2.7154e-67
-2.10244e-67
-8.15973e-68
-1.54296e-67
-1.23938e-67
-1.60549e-68
-1.58864e-69
1.63735e-68
6.62966e-68
1.02907e-67
1.31752e-67
1.61968e-67
1.84865e-67
2.01077e-67
2.163e-67
2.29134e-67
2.38552e-67
2.48474e-67
2.69687e-67
3.19591e-67
4.07762e-67
5.29474e-67
6.80075e-67
8.61533e-67
1.06798e-66
1.26292e-66
1.35735e-66
1.37952e-66
1.58313e-66
2.19683e-66
-3.06116e-66
4.83082e-67
-4.74992e-68
2.12519e-66
5.64866e-67
-3.15556e-66
-3.16157e-67
1.35232e-66
-3.41141e-67
-5.03742e-67
4.57779e-68
4.04619e-68
-2.01172e-68
-3.83567e-68
1.00075e-67
1.33725e-67
1.16341e-67
1.59411e-67
1.78422e-67
1.79087e-67
1.81813e-67
1.72976e-67
1.53704e-67
1.28139e-67
9.45978e-68
5.53938e-68
1.43666e-68
-2.63439e-68
-6.22502e-68
-8.55274e-68
-8.36728e-68
-4.15285e-68
4.80716e-68
1.85008e-67
3.6483e-67
5.67821e-67
7.55658e-67
8.71723e-67
8.12824e-67
5.21154e-67
-6.87897e-68
-3.55337e-67
1.06738e-66
-8.22183e-67
-2.84766e-66
-6.15329e-68
3.42806e-66
-3.13936e-68
-2.25551e-66
5.79908e-67
7.24516e-67
-2.53244e-67
5.7534e-68
2.82007e-67
2.52824e-67
2.81298e-67
3.20613e-67
3.98924e-67
4.36454e-67
4.11913e-67
4.05311e-67
3.93786e-67
3.42164e-67
2.70796e-67
1.86685e-67
8.02902e-68
-4.54769e-68
-1.81675e-67
-3.27795e-67
-4.75626e-67
-6.05e-67
-7.05204e-67
-7.6989e-67
-7.82194e-67
-7.28097e-67
-6.01736e-67
-4.05181e-67
-1.74932e-67
5.49629e-69
3.20225e-68
-1.93154e-67
-6.46372e-67
-1.34269e-66
-1.71152e-66
-4.3416e-66
2.4887e-66
4.39949e-66
9.74864e-67
-2.75687e-66
-1.95076e-66
1.90716e-66
1.52412e-66
-5.57151e-67
-4.48393e-67
7.8174e-67
4.07433e-67
3.50757e-67
5.69318e-67
5.29194e-67
5.86101e-67
6.55594e-67
6.04312e-67
5.67934e-67
5.36826e-67
4.53511e-67
3.39635e-67
2.04016e-67
3.39099e-68
-1.6502e-67
-3.80699e-67
-6.11924e-67
-8.44595e-67
-1.0537e-66
-1.23008e-66
-1.36017e-66
-1.41691e-66
-1.3928e-66
-1.29525e-66
-1.13429e-66
-9.63469e-67
-8.87056e-67
-9.90279e-67
-1.30758e-66
-1.71334e-66
-2.0818e-66
-2.44799e-66
-2.74306e-67
2.9712e-67
-1.47882e-66
8.95051e-67
2.16127e-66
-1.02683e-66
-5.75021e-67
1.23121e-66
3.60953e-67
-8.84035e-69
6.08025e-67
4.49043e-67
4.85427e-67
6.15909e-67
5.66161e-67
6.35352e-67
6.90506e-67
6.29749e-67
5.80769e-67
5.39565e-67
4.52234e-67
3.31025e-67
1.87582e-67
1.17919e-68
-1.95218e-67
-4.23276e-67
-6.63428e-67
-8.97633e-67
-1.10942e-66
-1.29551e-66
-1.43538e-66
-1.49864e-66
-1.48905e-66
-1.43499e-66
-1.37214e-66
-1.35426e-66
-1.42879e-66
-1.5946e-66
-1.83715e-66
-2.10015e-66
-2.21124e-66
-2.34114e-66
1.80011e-67
-1.99789e-67
-1.59487e-66
1.15488e-66
4.25265e-66
-4.97115e-67
-2.4145e-66
1.05378e-66
1.82769e-66
-1.19589e-67
2.38361e-67
6.99555e-67
5.40917e-67
3.97106e-67
4.68136e-67
5.11992e-67
4.65101e-67
4.26709e-67
3.97948e-67
3.56189e-67
3.00303e-67
2.27141e-67
1.41297e-67
4.7985e-68
-5.36674e-68
-1.60594e-67
-2.65133e-67
-3.57803e-67
-4.33059e-67
-4.92961e-67
-5.35168e-67
-5.54796e-67
-5.65765e-67
-5.96722e-67
-6.75933e-67
-8.13646e-67
-9.93044e-67
-1.18629e-66
-1.38354e-66
-1.58533e-66
-1.69485e-66
-1.68759e-66
-2.91047e-66
3.08471e-66
-6.54317e-67
5.3199e-66
1.99084e-66
-3.96269e-66
-1.97656e-66
3.34423e-66
1.62689e-66
-8.87827e-67
5.99843e-67
7.99685e-67
2.42035e-67
1.15696e-67
2.6721e-67
2.15609e-67
4.58805e-68
-2.02556e-68
-4.39737e-68
-7.1249e-68
-6.70448e-68
-1.76573e-68
8.37556e-68
2.43045e-67
4.56549e-67
7.19624e-67
1.01939e-66
1.32703e-66
1.60698e-66
1.81993e-66
1.92526e-66
1.88906e-66
1.68254e-66
1.29373e-66
7.42645e-67
7.66419e-68
-6.50421e-67
-1.38696e-66
-2.08387e-66
-2.68175e-66
-3.0841e-66
-3.22729e-66
4.24933e-66
-2.63112e-67
-7.48779e-67
1.40511e-67
1.05916e-67
2.19089e-66
5.05713e-67
-1.90589e-67
6.58071e-67
5.48436e-67
1.76491e-67
3.05311e-67
4.30212e-68
-1.76688e-67
-1.28394e-67
-2.79083e-67
-4.84485e-67
-5.67761e-67
-6.10327e-67
-6.08264e-67
-5.04702e-67
-2.80451e-67
8.02794e-68
5.77483e-67
1.18865e-66
1.88025e-66
2.59289e-66
3.2337e-66
3.69646e-66
3.87701e-66
3.68312e-66
3.04529e-66
1.92347e-66
3.3116e-67
-1.65256e-66
-3.91318e-66
-6.3262e-66
-8.7357e-66
-1.09573e-65
-1.28032e-65
-1.40939e-65
-1.46797e-65
4.14246e-66
-2.34188e-67
9.97001e-67
-2.17555e-66
-2.16029e-66
5.83605e-66
1.40147e-66
-1.99134e-66
-2.32009e-67
6.75837e-67
-3.93862e-67
-3.23664e-67
-4.04476e-67
-5.43433e-67
-4.26925e-67
-3.42888e-67
-2.02188e-67
1.93013e-68
2.47463e-67
4.46831e-67
5.51602e-67
4.88812e-67
1.98608e-67
-3.87351e-67
-1.31375e-66
-2.57727e-66
-4.14573e-66
-5.94894e-66
-7.88177e-66
-9.82148e-66
-1.1659e-65
-1.33218e-65
-1.47846e-65
-1.60666e-65
-1.72271e-65
-1.83687e-65
-1.96074e-65
-2.09835e-65
-2.24139e-65
-2.37441e-65
-2.47849e-65
-2.53149e-65
-2.07833e-66
1.87169e-66
1.74189e-66
1.56195e-66
-2.71586e-67
-5.12462e-67
1.77118e-68
7.13406e-67
-1.08887e-66
-1.674e-66
-1.18951e-66
-1.36831e-66
-1.27597e-66
-5.96886e-67
3.39838e-67
1.58127e-66
3.05561e-66
4.50738e-66
5.64847e-66
6.08346e-66
5.33584e-66
2.95275e-66
-1.43315e-66
-8.018e-66
-1.67134e-65
-2.70755e-65
-3.82832e-65
-4.91745e-65
-5.8351e-65
-6.43704e-65
-6.59989e-65
-6.24128e-65
-5.33779e-65
-3.93455e-65
-2.14107e-65
-1.15418e-66
1.962e-65
3.91801e-65
5.61154e-65
6.93324e-65
7.81535e-65
8.20207e-65
2.86136e-66
-1.39936e-66
-3.31096e-66
1.05832e-66
1.68151e-66
1.99454e-66
-1.30942e-67
-4.98048e-67
1.6018e-66
1.63459e-66
9.80002e-67
1.52028e-66
1.98816e-66
2.36101e-66
2.86323e-66
3.37707e-66
3.69273e-66
3.5779e-66
2.76533e-66
8.98733e-67
-2.38215e-66
-7.30915e-66
-1.39034e-65
-2.18913e-65
-3.06028e-65
-3.89163e-65
-4.52801e-65
-4.78149e-65
-4.45025e-65
-3.34428e-65
-1.31417e-65
1.72069e-65
5.75057e-65
1.06654e-64
1.62607e-64
2.22528e-64
2.83092e-64
3.40774e-64
3.92077e-64
4.33647e-64
4.62521e-64
4.75721e-64
-5.35353e-66
-1.58437e-66
-4.28634e-66
3.11925e-66
2.28247e-66
1.9398e-66
7.043e-66
1.41324e-65
1.7421e-65
1.99227e-65
2.25611e-65
2.19423e-65
1.76973e-65
9.46821e-66
-3.30248e-66
-2.02857e-65
-4.0364e-65
-6.13906e-65
-8.00866e-65
-9.21567e-65
-9.24749e-65
-7.55736e-65
-3.64997e-65
2.82505e-65
1.19705e-64
2.35477e-64
3.69289e-64
5.1113e-64
6.48111e-64
7.66081e-64
8.51924e-64
8.95922e-64
8.93734e-64
8.47341e-64
7.64774e-64
6.58642e-64
5.43812e-64
4.34349e-64
3.4112e-64
2.7082e-64
2.26195e-64
2.08192e-64
7.92095e-67
7.39916e-67
2.39345e-66
1.27164e-67
-1.40712e-66
5.09647e-66
2.15928e-65
2.67117e-65
3.00566e-65
3.81409e-65
4.13585e-65
3.36888e-65
1.67587e-65
-1.25102e-65
-5.45337e-65
-1.07258e-64
-1.66001e-64
-2.21659e-64
-2.61425e-64
-2.68654e-64
-2.24182e-64
-1.09754e-64
8.94922e-65
3.8076e-64
7.5891e-64
1.20349e-63
1.67771e-63
2.12966e-63
2.49695e-63
2.71506e-63
2.7271e-63
2.49364e-63
2.00174e-63
1.26971e-63
3.45676e-64
-6.99097e-64
-1.78003e-63
-2.81135e-63
-3.717e-63
-4.43535e-63
-4.92156e-63
-5.13656e-63
3.5567e-65
3.52432e-65
3.75734e-65
5.39163e-66
-1.97502e-65
-3.49848e-65
-5.27232e-65
-9.54725e-65
-1.29158e-64
-1.58096e-64
-1.83965e-64
-1.9606e-64
-1.94655e-64
-1.71579e-64
-1.25157e-64
-5.43218e-65
4.50407e-65
1.70494e-64
3.19415e-64
4.84911e-64
6.54657e-64
8.14596e-64
9.41468e-64
1.00584e-63
9.76767e-64
8.21799e-64
5.09109e-64
1.48938e-65
-6.73775e-64
-1.56023e-63
-2.63387e-63
-3.86943e-63
-5.23412e-63
-6.69028e-63
-8.19573e-63
-9.70475e-63
-1.11695e-62
-1.2537e-62
-1.37477e-62
-1.47347e-62
-1.54268e-62
-1.57484e-62
8.42754e-65
9.6295e-65
7.36518e-65
3.63409e-65
-3.15445e-65
-1.92801e-64
-3.6512e-64
-5.40902e-64
-7.7895e-64
-9.46451e-64
-1.01859e-63
-1.00231e-63
-7.99717e-64
-3.74313e-64
2.77142e-64
1.1529e-63
2.19606e-63
3.30047e-63
4.30261e-63
4.95792e-63
5.00128e-63
4.15663e-63
2.15039e-63
-1.20702e-63
-5.95438e-63
-1.19471e-62
-1.88288e-62
-2.60223e-62
-3.27833e-62
-3.83005e-62
-4.18022e-62
-4.26873e-62
-4.06612e-62
-3.58011e-62
-2.85523e-62
-1.96655e-62
-1.00712e-62
-7.18721e-64
7.55885e-63
1.41127e-62
1.85155e-62
2.04331e-62
-1.92094e-64
-7.18648e-65
2.87947e-65
2.02294e-65
-1.20889e-65
-9.39946e-65
-2.00011e-64
-3.75162e-64
-5.36296e-64
-5.9868e-64
-5.72599e-64
-2.93033e-64
2.83307e-64
1.20149e-63
2.50564e-63
4.10846e-63
5.83931e-63
7.39819e-63
8.32395e-63
8.03897e-63
5.89072e-63
1.24044e-63
-6.40238e-63
-1.72164e-62
-3.09201e-62
-4.66716e-62
-6.30287e-62
-7.80149e-62
-8.9305e-62
-9.45209e-62
-9.16101e-62
-7.92153e-62
-5.69511e-62
-2.55724e-62
1.30565e-62
5.62091e-62
1.00669e-61
1.4314e-61
1.8061e-61
2.10529e-61
2.30927e-61
2.4004e-61
-1.41334e-63
-1.63291e-63
-1.61107e-63
-4.70328e-64
7.91905e-64
1.98156e-63
3.7024e-63
6.10171e-63
8.18108e-63
1.00329e-62
1.20862e-62
1.27622e-62
1.2038e-62
9.77738e-63
5.43725e-63
-1.0432e-63
-9.55878e-63
-1.96716e-62
-3.06407e-62
-4.14117e-62
-5.03206e-62
-5.54699e-62
-5.49601e-62
-4.68119e-62
-2.94125e-62
-1.94692e-63
3.54168e-62
8.1356e-62
1.33291e-61
1.87697e-61
2.40612e-61
2.88151e-61
3.27219e-61
3.5602e-61
3.74256e-61
3.83134e-61
3.84988e-61
3.82603e-61
3.78587e-61
3.74833e-61
3.72299e-61
3.71362e-61
-4.05236e-63
-4.20203e-63
-4.03479e-63
-2.1363e-63
1.01733e-63
5.87468e-63
1.29646e-62
2.15853e-62
3.04011e-62
3.79537e-62
4.2742e-62
4.20845e-62
3.39722e-62
1.63257e-62
-1.19276e-62
-5.06409e-62
-9.73949e-62
-1.47238e-61
-1.92825e-61
-2.23641e-61
-2.26937e-61
-1.8932e-61
-9.85049e-62
5.39212e-62
2.69604e-61
5.41207e-61
8.51038e-61
1.17117e-60
1.4657e-60
1.6951e-60
1.82208e-60
1.81785e-60
1.66771e-60
1.37455e-60
9.59288e-61
4.58042e-61
-8.33905e-62
-6.16418e-61
-1.09579e-60
-1.48309e-60
-1.74909e-60
-1.8688e-60
1.77127e-62
5.53741e-63
7.76133e-66
-4.66483e-63
-3.26429e-63
-5.02948e-63
-1.10044e-62
-1.25257e-62
-1.37403e-62
-2.55076e-62
-3.56682e-62
-4.62062e-62
-6.49083e-62
-8.77063e-62
-1.13253e-61
-1.40701e-61
-1.63537e-61
-1.73518e-61
-1.57664e-61
-1.00769e-61
1.18555e-62
1.95768e-61
4.60942e-61
8.06015e-61
1.2165e-60
1.66191e-60
2.09496e-60
2.45471e-60
2.67365e-60
2.685e-60
2.43285e-60
1.88423e-60
1.03676e-60
-7.88316e-62
-1.40067e-60
-2.84257e-60
-4.30544e-60
-5.68986e-60
-6.90613e-60
-7.87699e-60
-8.5403e-60
-8.83885e-60
9.33795e-62
8.42522e-62
7.04996e-62
3.87178e-62
-8.5362e-63
-8.2267e-62
-1.83098e-61
-3.06564e-61
-4.2771e-61
-5.48627e-61
-6.56309e-61
-7.00821e-61
-6.65482e-61
-5.24885e-61
-2.57561e-61
1.4453e-61
6.68662e-61
1.287e-60
1.94525e-60
2.55524e-60
3.00987e-60
3.18507e-60
2.95077e-60
2.19586e-60
8.49424e-61
-1.09745e-60
-3.57146e-60
-6.40987e-60
-9.37274e-60
-1.21695e-59
-1.44956e-59
-1.60795e-59
-1.67313e-59
-1.63773e-59
-1.50736e-59
-1.29974e-59
-1.04177e-59
-7.64954e-60
-5.01014e-60
-2.78695e-60
-1.21222e-60
-4.78587e-61
2.07412e-61
1.68754e-61
2.08504e-61
8.58348e-62
2.60545e-62
-1.10965e-61
-3.67926e-61
-6.45733e-61
-9.26108e-61
-1.24144e-60
-1.41628e-60
-1.36058e-60
-1.09264e-60
-4.8669e-61
5.31387e-61
1.9173e-60
3.60143e-60
5.41001e-60
7.05753e-60
8.15834e-60
8.20044e-60
6.67041e-60
3.13623e-60
-2.74709e-60
-1.10606e-59
-2.14908e-59
-3.334e-59
-4.5526e-59
-5.66378e-59
-6.51128e-59
-6.9475e-59
-6.85531e-59
-6.17114e-59
-4.90094e-59
-3.12189e-59
-9.73023e-60
1.3634e-59
3.68727e-59
5.80425e-59
7.53953e-59
8.74793e-59
9.3017e-59
-7.51655e-61
-5.79755e-61
-3.25716e-61
-1.31595e-61
1.6128e-61
7.05849e-61
1.1906e-60
1.70865e-60
2.64757e-60
3.73329e-60
4.40524e-60
5.11792e-60
5.60603e-60
5.62787e-60
5.1173e-60
3.97435e-60
2.0052e-60
-9.23709e-61
-4.75714e-60
-9.74494e-60
-1.59554e-59
-2.30864e-59
-3.09367e-59
-3.91345e-59
-4.69071e-59
-5.3379e-59
-5.76154e-59
-5.85298e-59
-5.51471e-59
-4.67824e-59
-3.30571e-59
-1.39474e-59
1.00047e-59
3.77508e-59
6.789e-59
9.87767e-59
1.28705e-58
1.56057e-58
1.79426e-58
1.97701e-58
2.09978e-58
2.15355e-58
-3.52858e-60
-4.13466e-60
-3.52727e-60
-3.1218e-60
-6.03731e-61
2.86766e-60
7.17719e-60
1.2316e-59
1.87318e-59
2.44959e-59
2.89059e-59
3.19023e-59
3.06652e-59
2.42487e-59
1.20213e-59
-6.80056e-60
-3.19107e-59
-6.16291e-59
-9.3368e-59
-1.2276e-58
-1.44593e-58
-1.52959e-58
-1.41182e-58
-1.03887e-58
-3.82856e-59
5.56444e-59
1.73909e-58
3.07727e-58
4.44811e-58
5.70283e-58
6.68396e-58
7.25138e-58
7.30809e-58
6.81493e-58
5.79975e-58
4.35535e-58
2.62594e-58
7.86977e-59
-9.74328e-59
-2.4745e-58
-3.54872e-58
-4.05232e-58
-6.51957e-60
-4.63979e-60
-4.56263e-60
-6.50365e-60
-5.37662e-60
-1.39812e-60
4.10954e-60
7.11847e-60
1.57302e-59
2.37552e-59
2.43903e-59
2.40084e-59
1.83378e-59
3.59035e-60
-2.00569e-59
-5.27839e-59
-9.26484e-59
-1.36774e-58
-1.7441e-58
-1.94106e-58
-1.86751e-58
-1.34707e-58
-2.24811e-59
1.57608e-58
4.0777e-58
7.22429e-58
1.08179e-57
1.45561e-57
1.80607e-57
2.08723e-57
2.25412e-57
2.27037e-57
2.11247e-57
1.77476e-57
1.27241e-57
6.40329e-58
-7.07271e-59
-8.00195e-58
-1.48357e-57
-2.05811e-57
-2.46628e-57
-2.65554e-57
4.39043e-59
3.71177e-59
2.82693e-59
1.4703e-59
-1.35736e-59
-3.20434e-59
-6.83451e-59
-1.20459e-58
-1.73196e-58
-2.31013e-58
-2.86137e-58
-3.24237e-58
-3.34971e-58
-3.07625e-58
-2.3511e-58
-1.05306e-58
8.04101e-59
3.20437e-58
6.08637e-58
9.27255e-58
1.25751e-57
1.56888e-57
1.82647e-57
2.00113e-57
2.06147e-57
1.9809e-57
1.751e-57
1.37622e-57
8.77231e-58
2.92454e-58
-3.33104e-58
-9.4964e-58
-1.50828e-57
-1.96872e-57
-2.30485e-57
-2.50586e-57
-2.58032e-57
-2.5534e-57
-2.45763e-57
-2.33093e-57
-2.21672e-57
-2.15477e-57
1.75069e-58
2.01543e-58
1.82947e-58
1.40442e-58
5.94904e-59
-2.13591e-59
-2.11458e-58
-4.34425e-58
-5.73167e-58
-8.47857e-58
-1.0968e-57
-1.21391e-57
-1.2185e-57
-1.05293e-57
-6.55287e-58
-3.09895e-60
9.08395e-58
2.0264e-57
3.2597e-57
4.48647e-57
5.50122e-57
6.06819e-57
5.96823e-57
4.99556e-57
2.99192e-57
-8.54293e-59
-4.14774e-57
-8.96953e-57
-1.41708e-56
-1.92622e-56
-2.37124e-56
-2.69939e-56
-2.86577e-56
-2.8412e-56
-2.61733e-56
-2.2089e-56
-1.65402e-56
-1.0106e-56
-3.52161e-57
2.39014e-57
6.79105e-57
8.9049e-57
9.66899e-59
2.12409e-58
3.27358e-58
2.71388e-58
2.59223e-58
3.48395e-58
4.14924e-58
4.00567e-58
4.20224e-58
4.62526e-58
4.74347e-58
5.13681e-58
5.65573e-58
6.12302e-58
7.08426e-58
8.57852e-58
1.00712e-57
1.11855e-57
1.04893e-57
6.07742e-58
-4.50994e-58
-2.47666e-57
-5.73382e-57
-1.04617e-56
-1.68662e-56
-2.49491e-56
-3.44606e-56
-4.49813e-56
-5.58216e-56
-6.60573e-56
-7.47094e-56
-8.07845e-56
-8.33851e-56
-8.18887e-56
-7.61009e-56
-6.63224e-56
-5.33567e-56
-3.84292e-56
-2.31527e-56
-9.42366e-57
7.96099e-58
5.69447e-57
-2.12827e-57
-1.60629e-57
-1.13626e-57
-9.93195e-58
-2.63788e-58
1.16695e-57
3.16292e-57
5.06867e-57
8.15705e-57
1.14781e-56
1.39488e-56
1.6038e-56
1.68994e-56
1.57904e-56
1.22272e-56
5.89892e-57
-3.17936e-57
-1.5425e-56
-3.03048e-56
-4.65916e-56
-6.35296e-56
-8.05506e-56
-9.56946e-56
-1.07568e-55
-1.15167e-55
-1.17199e-55
-1.12793e-55
-1.01725e-55
-8.39341e-56
-5.97538e-56
-3.04191e-56
2.16393e-57
3.56266e-56
6.72809e-56
9.4283e-56
1.14116e-55
1.25208e-55
1.27336e-55
1.2202e-55
1.12426e-55
1.02797e-55
9.72457e-56
-6.2377e-57
-8.66523e-57
-7.57391e-57
-8.6224e-57
-5.75885e-57
-1.91894e-57
1.99503e-57
7.74656e-57
1.56922e-56
2.37806e-56
3.24169e-56
3.9659e-56
4.40621e-56
4.42144e-56
3.69379e-56
2.2769e-56
6.49612e-59
-3.20274e-56
-7.08092e-56
-1.14518e-55
-1.58205e-55
-1.95556e-55
-2.21117e-55
-2.27216e-55
-2.04725e-55
-1.47016e-55
-4.83269e-56
9.59824e-56
2.84484e-55
5.10959e-55
7.65404e-55
1.03225e-54
1.29088e-54
1.51795e-54
1.69132e-54
1.79456e-54
1.8215e-54
1.7777e-54
1.68075e-54
1.55986e-54
1.45285e-54
1.39581e-54
-1.13262e-57
-8.00201e-57
-7.28775e-57
-1.57165e-56
-1.65302e-56
-2.47024e-56
-3.65698e-56
-3.88727e-56
-5.28584e-56
-6.75402e-56
-7.16662e-56
-7.2116e-56
-6.71522e-56
-5.36061e-56
-3.20438e-56
-5.1532e-57
2.84407e-56
7.23211e-56
1.17957e-55
1.70126e-55
2.47869e-55
3.55889e-55
5.08372e-55
7.27159e-55
1.02755e-54
1.42e-54
1.90866e-54
2.47975e-54
3.10041e-54
3.72615e-54
4.30048e-54
4.76243e-54
5.05897e-54
5.15337e-54
5.03332e-54
4.71592e-54
4.24419e-54
3.68138e-54
3.10312e-54
2.58728e-54
2.20719e-54
2.02912e-54
4.38319e-56
8.89838e-56
6.82726e-56
6.89218e-56
2.67593e-56
-3.4588e-56
-9.56483e-56
-1.86243e-55
-3.07461e-55
-4.25993e-55
-5.56709e-55
-6.63435e-55
-7.30906e-55
-7.47269e-55
-6.79098e-55
-5.30808e-55
-2.65558e-55
1.18363e-55
6.27819e-55
1.30251e-54
2.12077e-54
3.12215e-54
4.33743e-54
5.72005e-54
7.20365e-54
8.68914e-54
9.97148e-54
1.07955e-53
1.08786e-53
9.93303e-54
7.75848e-54
4.29095e-54
-3.65929e-55
-5.90913e-54
-1.18723e-53
-1.7715e-53
-2.2927e-53
-2.7126e-53
-3.01364e-53
-3.20041e-53
-3.29666e-53
-3.32724e-53
3.12512e-55
3.13422e-55
3.52373e-55
3.86968e-55
4.37306e-55
3.12013e-55
3.03518e-55
1.64784e-55
-2.20978e-55
-4.89253e-55
-8.29467e-55
-1.31213e-54
-1.77753e-54
-2.1535e-54
-2.37061e-54
-2.28054e-54
-1.8904e-54
-1.05442e-54
3.21995e-55
2.10952e-54
4.25321e-54
6.56323e-54
8.63152e-54
9.9672e-54
9.94009e-54
7.77208e-54
2.73601e-54
-5.72069e-54
-1.79471e-53
-3.38748e-53
-5.29139e-53
-7.3978e-53
-9.55608e-53
-1.15921e-52
-1.33383e-52
-1.4663e-52
-1.54933e-52
-1.58345e-52
-1.57771e-52
-1.54767e-52
-1.51309e-52
-1.49291e-52
2.85124e-55
6.03257e-55
6.28637e-55
7.53989e-55
1.14488e-54
1.41459e-54
1.95243e-54
2.45347e-54
2.82203e-54
3.15814e-54
2.85194e-54
2.52506e-54
2.21329e-54
1.38715e-54
9.9679e-55
1.07973e-54
1.60745e-54
2.7382e-54
3.8966e-54
4.14329e-54
1.73383e-54
-5.58232e-54
-2.01296e-53
-4.4441e-53
-8.03385e-53
-1.2784e-52
-1.84805e-52
-2.46671e-52
-3.06459e-52
-3.5565e-52
-3.85593e-52
-3.89207e-52
-3.62612e-52
-3.06106e-52
-2.24185e-52
-1.25057e-52
-1.92204e-53
8.27319e-53
1.71843e-52
2.41521e-52
2.87914e-52
3.08055e-52
-1.30431e-54
-2.97877e-54
-2.13458e-54
-3.63174e-54
-2.57224e-54
-1.51256e-54
2.34488e-55
3.83125e-54
8.77613e-54
1.34461e-53
2.02645e-53
2.8246e-53
3.53959e-53
4.21682e-53
4.75409e-53
5.04741e-53
4.90905e-53
4.17074e-53
2.60107e-53
-2.34275e-54
-4.75098e-53
-1.12904e-52
-2.00855e-52
-3.09988e-52
-4.33025e-52
-5.55743e-52
-6.56763e-52
-7.08892e-52
-6.82657e-52
-5.51661e-52
-2.98936e-52
7.76902e-53
5.62773e-52
1.12362e-51
1.71469e-51
2.28567e-51
2.7908e-51
3.19754e-51
3.49272e-51
3.68133e-51
3.78316e-51
3.81925e-51
-1.98561e-53
-2.70512e-53
-3.07878e-53
-2.82252e-53
-2.63011e-53
-3.20999e-53
-3.13594e-53
-1.9801e-53
-5.11567e-54
2.18327e-53
6.27842e-53
1.01907e-52
1.43925e-52
1.77932e-52
1.89458e-52
1.68182e-52
1.05014e-52
-5.57768e-54
-1.59347e-52
-3.42117e-52
-5.26367e-52
-6.64495e-52
-6.96251e-52
-5.58855e-52
-1.8977e-52
4.61603e-52
1.41145e-51
2.63112e-51
4.04557e-51
5.53335e-51
6.94339e-51
8.12e-51
8.92861e-51
9.28113e-51
9.15289e-51
8.58732e-51
7.68653e-51
6.59205e-51
5.46563e-51
4.46689e-51
3.73487e-51
3.39022e-51
-9.89966e-53
-7.1237e-53
-4.97137e-53
-6.67234e-53
-7.64716e-53
-7.41871e-53
-7.11082e-53
-9.66779e-53
-8.24451e-53
-5.63273e-53
-4.52072e-53
-2.58532e-53
-2.22665e-53
-6.09976e-53
-1.6928e-52
-3.72671e-52
-6.83018e-52
-1.07519e-51
-1.47958e-51
-1.76932e-51
-1.74975e-51
-1.18132e-51
1.83108e-52
2.54873e-51
6.00054e-51
1.04185e-50
1.54319e-50
2.04178e-50
2.45462e-50
2.69042e-50
2.6673e-50
2.33049e-50
1.66675e-50
7.11325e-51
-4.55613e-51
-1.7236e-50
-2.97334e-50
-4.09812e-50
-5.02193e-50
-5.70401e-50
-6.13523e-50
-6.31534e-50
2.59172e-52
1.58615e-52
2.54878e-52
2.4075e-52
3.55174e-52
4.01538e-52
3.12101e-52
9.53783e-53
-2.58888e-52
-8.38258e-52
-1.67387e-51
-2.46769e-51
-3.3676e-51
-4.13623e-51
-4.54151e-51
-4.53205e-51
-3.83445e-51
-2.2874e-51
1.7224e-52
3.55878e-51
7.73156e-51
1.24169e-50
1.70384e-50
2.07224e-50
2.24009e-50
2.08633e-50
1.49064e-50
3.57856e-51
-1.35707e-50
-3.62925e-50
-6.35474e-50
-9.35547e-50
-1.24002e-49
-1.52385e-49
-1.76423e-49
-1.94455e-49
-2.05738e-49
-2.10577e-49
-2.10322e-49
-2.07063e-49
-2.03168e-49
-2.0083e-49
2.27249e-51
2.80849e-51
2.89195e-51
2.59428e-51
2.50197e-51
2.52763e-51
2.18987e-51
9.37565e-52
-5.12744e-52
-3.00664e-51
-6.48251e-51
-1.00432e-50
-1.31067e-50
-1.46292e-50
-1.34022e-50
-7.89843e-51
2.35782e-51
1.76798e-50
3.74437e-50
5.83594e-50
7.60985e-50
8.46374e-50
7.66737e-50
4.53919e-50
-1.44303e-50
-1.04539e-49
-2.21087e-49
-3.54173e-49
-4.88163e-49
-6.03483e-49
-6.80287e-49
-7.02098e-49
-6.59365e-49
-5.5198e-49
-3.89636e-49
-1.89983e-49
2.49484e-50
2.32834e-49
4.14807e-49
5.57279e-49
6.52081e-49
6.93425e-49
4.45087e-51