/*--------------------------------*- C++ -*----------------------------------*\
| =========                 |                                                 |
| \\      /  F ield         | OpenFOAM: The Open Source CFD Toolbox           |
|  \\    /   O peration     | Version:  2406                                  |
|   \\  /    A nd           | Website:  www.openfoam.com                      |
|    \\/     M anipulation  |                                                 |
\*---------------------------------------------------------------------------*/
FoamFile
{
    version     2.0;
    format      ascii;
    arch        "LSB;label=32;scalar=64";
    class       volScalarField;
    location    "0.109";
    object      ddt0(rhoN);
}
// * * * * * * * * * * * * * * * * * * * * * * * * * * * * * * * * * * * * * //

dimensions      [0 -3 -1 0 0 0 0];

internalField   nonuniform List<scalar> 
8988
(
1.0437e-58
1.11827e-57
5.55079e-58
-1.43592e-57
-1.00083e-58
1.30265e-57
1.20485e-57
4.10686e-58
-1.17588e-59
1.77705e-58
4.75107e-58
3.98168e-58
3.39732e-58
2.86455e-58
2.98208e-58
3.04195e-58
2.81274e-58
2.35475e-58
1.91768e-58
1.62628e-58
1.43364e-58
1.33929e-58
1.26805e-58
1.24028e-58
1.11587e-58
9.03474e-59
7.15916e-59
6.09282e-59
5.23507e-59
4.2235e-59
3.37592e-59
2.78183e-59
2.25792e-59
1.65632e-59
1.06042e-59
6.54628e-60
4.95683e-60
5.32916e-60
7.47221e-60
1.10034e-59
1.44233e-59
1.66826e-59
-1.45563e-58
8.16588e-58
4.15292e-57
-4.05321e-57
-2.82015e-57
6.94083e-57
3.08257e-57
-4.25908e-57
-6.47416e-58
3.14929e-57
1.23817e-57
-2.96028e-58
3.80172e-58
9.50166e-58
6.18478e-58
4.66556e-58
4.9454e-58
4.61123e-58
4.13647e-58
3.81815e-58
3.31433e-58
2.88282e-58
2.63574e-58
2.38931e-58
2.04654e-58
1.61971e-58
1.28228e-58
1.21926e-58
1.22062e-58
9.19153e-59
5.86452e-59
4.12011e-59
2.97526e-59
1.58806e-59
3.65397e-60
-2.87101e-60
-4.53309e-60
-3.08614e-60
1.1825e-60
6.98508e-60
1.2774e-59
1.60316e-59
-7.70585e-57
3.02659e-57
1.00669e-56
3.61978e-57
-7.42301e-57
-3.50463e-57
6.26624e-57
5.26447e-57
-2.51738e-57
-2.00709e-57
2.93484e-57
1.77188e-57
1.73048e-58
5.38463e-58
9.46525e-58
6.80999e-58
5.98387e-58
6.00012e-58
5.65784e-58
5.2293e-58
4.80261e-58
4.37724e-58
4.0629e-58
3.77399e-58
3.40265e-58
2.90393e-58
2.44504e-58
2.14441e-58
1.91175e-58
1.53204e-58
1.17564e-58
8.87633e-59
6.15626e-59
3.98586e-59
2.34503e-59
1.41621e-59
1.11954e-59
1.18365e-59
1.38208e-59
1.53865e-59
1.62777e-59
1.61924e-59
-7.46238e-57
3.34664e-57
8.5023e-57
3.48683e-57
-2.37301e-57
-6.09776e-57
9.92046e-58
1.03037e-56
4.37849e-58
-4.06065e-57
8.3015e-58
3.91337e-57
4.68136e-58
1.27712e-58
1.13088e-57
9.03593e-58
6.90209e-58
6.91853e-58
6.57632e-58
6.00734e-58
5.63904e-58
5.35518e-58
5.0047e-58
4.55198e-58
4.0218e-58
3.46692e-58
2.98834e-58
2.61463e-58
2.26672e-58
1.89341e-58
1.54372e-58
1.23137e-58
9.4409e-59
7.12962e-59
5.43812e-59
4.4668e-59
3.9933e-59
3.64425e-59
3.1504e-59
2.52826e-59
1.92661e-59
1.59668e-59
-5.69326e-58
2.39173e-57
-2.82596e-57
2.07017e-57
7.05864e-57
5.24038e-58
-4.47005e-57
1.45587e-57
4.60412e-57
6.88302e-59
-2.96249e-58
1.67136e-57
1.03746e-57
7.69131e-58
9.19201e-58
8.1162e-58
7.59823e-58
7.37303e-58
6.77328e-58
6.21471e-58
5.92284e-58
5.74425e-58
5.40595e-58
4.72951e-58
4.06865e-58
3.61287e-58
3.23641e-58
2.80276e-58
2.24661e-58
1.83699e-58
1.55904e-58
1.28491e-58
1.03809e-58
8.58624e-59
7.27834e-59
6.22788e-59
5.43373e-59
4.71993e-59
3.86399e-59
2.88634e-59
2.00004e-59
1.52637e-59
6.37778e-57
-6.37171e-58
-3.10181e-57
-2.95215e-57
2.18612e-59
9.09082e-57
2.07841e-57
-6.0793e-57
-8.24892e-58
5.19737e-57
1.10046e-57
-7.05695e-58
1.04071e-57
9.23488e-58
5.45516e-58
6.09272e-58
6.36632e-58
6.23195e-58
5.81629e-58
5.26899e-58
5.09381e-58
5.22662e-58
4.9362e-58
3.97877e-58
3.25301e-58
3.07893e-58
2.98903e-58
2.55319e-58
1.90538e-58
1.49918e-58
1.25783e-58
1.04151e-58
8.51628e-59
7.06484e-59
5.95948e-59
4.98156e-59
4.28609e-59
3.54805e-59
2.92358e-59
2.30376e-59
1.75201e-59
1.4268e-59
2.4043e-57
-1.00108e-57
3.7983e-57
7.93052e-58
-6.65558e-57
-1.83465e-57
8.67753e-57
1.50121e-57
-3.66603e-57
1.81058e-58
1.78227e-57
-1.1979e-58
1.70133e-58
7.13242e-58
3.86399e-58
1.88184e-58
2.56997e-58
3.44841e-58
3.60883e-58
2.942e-58
2.64071e-58
3.01401e-58
3.18925e-58
2.58069e-58
2.05567e-58
2.01823e-58
2.0148e-58
1.66368e-58
1.29311e-58
1.05471e-58
8.49733e-59
6.292e-59
4.46829e-59
3.13985e-59
2.11426e-59
1.32447e-59
8.27422e-60
6.50619e-60
8.36213e-60
1.129e-59
1.30547e-59
1.32449e-59
-4.16386e-57
1.56036e-57
-1.35211e-58
4.12781e-57
3.0482e-57
-5.32882e-57
-3.0017e-57
3.93572e-57
1.81766e-57
-1.95035e-57
-3.47457e-58
2.44554e-58
-1.1799e-58
4.23979e-58
8.49551e-59
-1.77397e-58
1.6505e-60
1.44385e-58
1.80728e-58
8.99756e-59
5.39259e-59
9.70837e-59
1.24592e-58
9.03444e-59
6.75184e-59
7.58638e-59
7.12289e-59
4.66187e-59
3.19057e-59
2.87898e-59
2.15781e-59
8.26209e-60
-3.56046e-60
-1.33851e-59
-2.13114e-59
-2.57727e-59
-2.65156e-59
-2.21065e-59
-1.20507e-59
4.96265e-62
9.04096e-60
1.28623e-59
4.64961e-57
-1.48968e-57
-4.97834e-57
-2.91171e-57
3.04953e-57
4.16195e-57
-2.60362e-57
-4.27793e-57
1.34881e-57
1.78306e-57
-1.31869e-57
-1.10398e-57
1.15943e-58
-1.38929e-58
-4.32404e-58
-3.22119e-58
-2.46873e-58
-2.34421e-58
-1.74721e-58
-1.08893e-58
-1.20832e-58
-1.57936e-58
-1.33896e-58
-6.70793e-59
-2.73337e-59
-1.07083e-59
-7.21954e-60
-6.23404e-60
3.76881e-61
8.31808e-60
8.76032e-60
3.16569e-60
-4.0589e-60
-1.31341e-59
-2.20714e-59
-2.82038e-59
-2.95206e-59
-2.46854e-59
-1.42269e-59
-1.70713e-60
8.31825e-60
1.32384e-59
-7.62249e-57
2.06214e-57
5.94561e-57
1.71379e-57
-4.30412e-57
-4.34278e-57
2.31002e-57
1.91862e-57
-1.67855e-57
-1.26961e-57
-2.49268e-58
-4.08651e-58
-3.49468e-58
-6.18675e-58
-4.73625e-58
-2.28224e-58
-3.62534e-58
-4.61999e-58
-3.91446e-58
-2.74196e-58
-2.50616e-58
-2.7598e-58
-2.23984e-58
-1.30924e-58
-5.66911e-59
-1.68375e-59
1.21177e-59
4.81887e-59
8.31167e-59
1.0331e-58
1.066e-58
1.00714e-58
8.99463e-59
7.48249e-59
5.76041e-59
4.09253e-59
2.74704e-59
1.87188e-59
1.43111e-59
1.31258e-59
1.39265e-59
1.49726e-59
-2.09934e-58
-8.82188e-60
-6.08201e-57
-1.73245e-57
6.528e-57
1.87284e-57
-7.54929e-57
-2.43851e-57
2.41427e-57
7.59703e-58
-2.13913e-57
-6.02984e-58
1.08381e-58
-4.02837e-58
-5.08374e-58
-2.84358e-58
-3.0733e-58
-3.304e-58
-2.676e-58
-2.06456e-58
-1.86768e-58
-1.90516e-58
-1.28972e-58
-4.36718e-59
3.05937e-60
4.12637e-59
9.9149e-59
1.6594e-58
2.25101e-58
2.65422e-58
2.84237e-58
2.86047e-58
2.75127e-58
2.5345e-58
2.22805e-58
1.86146e-58
1.46856e-58
1.08334e-58
7.37719e-59
4.57514e-59
2.68398e-59
1.84596e-59
4.69513e-57
-3.1224e-57
-5.29887e-58
-5.65698e-57
-4.40644e-57
4.97515e-57
2.78557e-57
-3.81424e-57
-3.3802e-57
1.01766e-57
-1.19539e-58
-1.13385e-57
-5.10435e-59
-1.96126e-58
-5.41272e-58
-1.55817e-58
-1.46034e-58
-2.23e-58
-8.65704e-59
1.47423e-59
9.15972e-60
-2.12173e-59
4.89226e-59
1.38229e-58
1.71449e-58
1.93082e-58
2.46586e-58
3.09004e-58
3.64035e-58
4.10863e-58
4.48361e-58
4.73132e-58
4.8066e-58
4.65897e-58
4.26004e-58
3.65172e-58
2.92656e-58
2.17263e-58
1.45994e-58
8.53858e-59
4.23269e-59
2.23047e-59
-1.28824e-56
3.54723e-57
7.51449e-57
1.65083e-57
-5.18145e-57
-6.19417e-57
1.84738e-57
2.95888e-57
-1.71179e-57
-2.75833e-57
2.20562e-58
-6.1183e-58
-3.65178e-59
-1.93629e-58
-8.39721e-58
-8.50746e-59
9.57024e-59
-2.0957e-58
-4.81302e-59
1.32075e-58
1.37669e-58
1.19477e-58
1.81029e-58
2.68357e-58
3.1771e-58
3.57641e-58
4.0438e-58
4.4581e-58
4.80975e-58
5.15424e-58
5.50874e-58
5.84003e-58
6.06709e-58
6.07336e-58
5.75407e-58
5.09076e-58
4.17311e-58
3.15073e-58
2.12282e-58
1.22274e-58
5.66319e-59
2.54169e-59
-4.01232e-57
2.91911e-58
-5.80782e-57
3.98687e-57
4.62453e-57
-5.75855e-57
-5.76926e-57
1.69984e-57
2.31692e-57
-2.12855e-57
-1.47574e-57
-6.18528e-58
2.67043e-58
-1.79999e-58
-9.75082e-58
-2.12115e-58
-9.4775e-60
-2.56648e-58
-8.36421e-59
7.6432e-59
8.83305e-59
1.19454e-58
1.89141e-58
2.53675e-58
3.22337e-58
3.89288e-58
4.43049e-58
4.8866e-58
5.29883e-58
5.63355e-58
5.89088e-58
6.07476e-58
6.16325e-58
6.11533e-58
5.8744e-58
5.38806e-58
4.61876e-58
3.58014e-58
2.46415e-58
1.42773e-58
6.4445e-59
2.66279e-59
8.34862e-57
-3.13191e-57
-1.00075e-56
-3.65246e-57
5.10972e-57
4.10412e-57
-5.18836e-57
-5.11494e-57
1.78175e-57
4.29994e-58
-1.93018e-57
-1.1556e-57
1.55755e-58
-5.79928e-58
-9.02061e-58
-2.48641e-58
-3.17126e-58
-4.62978e-58
-2.13444e-58
-1.09559e-58
-9.63102e-59
-1.82852e-59
5.23184e-59
1.16307e-58
1.96955e-58
2.67021e-58
3.20136e-58
3.78493e-58
4.39553e-58
4.85414e-58
5.08123e-58
5.22573e-58
5.28952e-58
5.15771e-58
4.89694e-58
4.54508e-58
4.01334e-58
3.26553e-58
2.3517e-58
1.40889e-58
6.43236e-59
2.59852e-59
2.67549e-57
-3.27105e-57
7.44972e-58
-3.41927e-57
-4.89028e-57
2.48189e-57
1.89254e-57
-3.56077e-57
-2.24704e-57
6.49816e-58
-1.18507e-57
-9.77769e-58
-4.53772e-58
-1.34727e-57
-5.90046e-58
-2.02558e-58
-7.4911e-58
-6.82437e-58
-3.86207e-58
-3.27371e-58
-3.20558e-58
-2.79068e-58
-1.84724e-58
-8.0307e-59
-7.29676e-60
4.83319e-59
1.04672e-58
1.64564e-58
2.32781e-58
2.89583e-58
3.25585e-58
3.45026e-58
3.53987e-58
3.50774e-58
3.35763e-58
3.11976e-58
2.81327e-58
2.41584e-58
1.8429e-58
1.15938e-58
5.60818e-59
2.4442e-59
-7.11804e-57
2.2947e-57
-7.08674e-58
2.4173e-57
1.01646e-57
-6.10547e-57
-1.37227e-57
1.53733e-57
-8.92727e-58
-2.04121e-57
-8.70501e-58
-6.69414e-59
-1.32816e-57
-1.35684e-57
-3.11865e-58
-7.40608e-58
-1.02181e-57
-6.17299e-58
-5.65497e-58
-5.83769e-58
-4.81913e-58
-4.35276e-58
-3.85192e-58
-2.97321e-58
-2.28011e-58
-1.76629e-58
-1.14438e-58
-4.53369e-59
1.89389e-59
7.01968e-59
1.09483e-58
1.39848e-58
1.6171e-58
1.73275e-58
1.7544e-58
1.70861e-58
1.59573e-58
1.40319e-58
1.1607e-58
7.93766e-59
4.21352e-59
2.17637e-59
7.76976e-57
-3.11071e-57
-1.06184e-56
-2.34184e-57
6.23045e-57
3.09895e-57
-5.31061e-57
-4.00429e-57
1.90378e-57
-8.43013e-58
-1.43406e-57
-4.76145e-58
-1.2743e-57
-8.00678e-58
-4.33333e-58
-1.13387e-57
-8.509e-58
-3.66057e-58
-6.02065e-58
-7.2765e-58
-5.38785e-58
-4.45886e-58
-4.42914e-58
-3.98963e-58
-3.3847e-58
-2.7834e-58
-2.22634e-58
-1.6874e-58
-1.17604e-58
-7.38218e-59
-3.47341e-59
2.8311e-60
3.49018e-59
5.68079e-59
6.98109e-59
7.68947e-59
7.75892e-59
7.06637e-59
5.81168e-59
4.56325e-59
3.01106e-59
2.03352e-59
9.58487e-58
-2.8119e-57
1.76984e-57
-5.79439e-58
-3.08203e-57
-6.95298e-59
3.70014e-58
-1.3603e-57
-8.68206e-58
-3.03407e-58
-7.77743e-58
-6.82501e-58
-8.2863e-58
-6.94302e-58
-3.3187e-58
-6.99271e-58
-6.99939e-58
-3.05867e-58
-4.07691e-58
-5.75565e-58
-4.51643e-58
-3.30327e-58
-3.247e-58
-3.23475e-58
-2.75845e-58
-2.13364e-58
-1.69241e-58
-1.37334e-58
-1.0551e-58
-7.23927e-59
-3.81475e-59
-4.30515e-60
2.33465e-59
4.1074e-59
5.00593e-59
5.25415e-59
4.98051e-59
4.29736e-59
3.32678e-59
2.4833e-59
2.09833e-59
2.05623e-59
-6.56274e-57
1.03008e-57
-1.37759e-58
4.53441e-57
1.23148e-57
-6.99041e-57
-8.27678e-58
2.95316e-57
-8.99172e-58
-1.35658e-57
-1.05829e-58
-1.36315e-58
-3.58302e-58
-5.19744e-58
-1.63228e-58
-1.37701e-58
-2.98863e-58
-1.779e-58
-1.56949e-58
-2.086e-58
-1.56428e-58
-9.96374e-59
-8.83459e-59
-7.39841e-59
-4.12432e-59
-7.71773e-60
1.69355e-59
3.82311e-59
5.97192e-59
8.02469e-59
9.94919e-59
1.15073e-58
1.22516e-58
1.2095e-58
1.11849e-58
9.63148e-59
7.63823e-59
5.52685e-59
3.60797e-59
2.32682e-59
1.86347e-59
2.03822e-59
2.26308e-57
-1.76918e-57
-6.15699e-57
-1.99668e-58
7.39688e-57
-1.00031e-58
-5.13548e-57
1.13192e-57
1.47677e-57
-8.65211e-58
-2.30589e-58
2.34817e-58
6.90207e-59
2.22247e-59
3.35588e-60
1.74822e-58
2.64109e-58
1.0215e-58
9.6356e-59
2.55683e-58
2.8807e-58
2.09871e-58
1.94127e-58
2.34935e-58
2.70089e-58
2.69447e-58
2.63764e-58
2.81365e-58
3.05216e-58
3.11687e-58
3.04036e-58
2.90828e-58
2.71152e-58
2.44005e-58
2.10436e-58
1.7067e-58
1.27035e-58
8.52989e-59
5.15177e-59
3.07237e-59
2.19053e-59
2.16983e-59
-9.30748e-57
5.28161e-57
9.41686e-57
2.07498e-57
-6.05736e-57
-4.39463e-57
4.12535e-57
3.27925e-57
-1.5042e-57
-1.43706e-57
1.42759e-57
4.07575e-58
1.34465e-58
6.03518e-58
3.36673e-58
4.47458e-58
6.94425e-58
4.65013e-58
3.83307e-58
5.60164e-58
5.90895e-58
4.86962e-58
4.63725e-58
5.08147e-58
5.35683e-58
5.14553e-58
4.9343e-58
5.02067e-58
5.0857e-58
4.89217e-58
4.5943e-58
4.27448e-58
3.85895e-58
3.34268e-58
2.77377e-58
2.16918e-58
1.56284e-58
1.0289e-58
6.23161e-59
3.77006e-59
2.61112e-59
2.27008e-59
-6.53554e-58
5.81219e-58
-3.24745e-57
1.84009e-57
4.63035e-57
-2.32796e-57
-1.42445e-57
2.58978e-57
5.95901e-58
-3.61123e-58
1.02529e-57
5.26454e-58
5.24239e-58
7.75343e-58
5.04873e-58
6.90031e-58
9.2588e-58
7.06444e-58
5.87646e-58
7.12708e-58
7.70397e-58
6.91035e-58
6.32986e-58
6.31354e-58
6.34734e-58
6.18707e-58
6.05517e-58
6.00865e-58
5.75447e-58
5.26956e-58
4.80098e-58
4.36807e-58
3.84235e-58
3.2164e-58
2.5538e-58
1.90738e-58
1.33515e-58
8.85516e-59
5.62949e-59
3.59936e-59
2.5952e-59
2.22236e-59
2.77283e-58
-5.20264e-58
-3.53917e-57
2.34934e-57
9.1394e-57
-1.1403e-57
-5.53894e-57
2.13765e-57
4.06389e-57
-5.25341e-58
2.39492e-58
1.39362e-57
9.87111e-58
5.35622e-58
7.37998e-58
9.16452e-58
7.96774e-58
7.12046e-58
6.93909e-58
6.71064e-58
6.79436e-58
7.01319e-58
6.76252e-58
6.26204e-58
5.8761e-58
5.5608e-58
5.25068e-58
4.90689e-58
4.45454e-58
3.90263e-58
3.35988e-58
2.84996e-58
2.32528e-58
1.79151e-58
1.29328e-58
8.808e-59
5.82757e-59
3.89919e-59
2.73315e-59
2.11445e-59
1.92686e-59
1.92655e-59
-6.31703e-57
6.53536e-57
-1.50182e-57
1.13785e-56
4.34414e-57
-8.75179e-57
-4.64411e-57
7.45131e-57
3.80353e-57
-2.20439e-57
1.40149e-57
2.06743e-57
7.06555e-58
4.06413e-58
1.05384e-57
1.12267e-57
6.89731e-58
5.91878e-58
6.58062e-58
6.06769e-58
5.46352e-58
5.15811e-58
4.55114e-58
3.91538e-58
3.56361e-58
3.24522e-58
2.72805e-58
2.10559e-58
1.53094e-58
1.00679e-58
5.33376e-59
1.29069e-59
-2.12143e-59
-4.67525e-59
-6.02869e-59
-6.14547e-59
-5.31175e-59
-3.89459e-59
-2.2206e-59
-5.76169e-60
7.4981e-60
1.4382e-59
9.18501e-57
-4.5923e-58
-1.48566e-57
4.6707e-58
3.92434e-58
5.04826e-57
1.42622e-57
-1.12209e-58
1.92212e-57
1.81228e-57
1.05912e-57
1.57774e-57
1.06772e-57
6.77451e-58
1.15988e-57
1.01775e-57
6.02771e-58
5.68137e-58
5.46759e-58
3.95304e-58
2.92293e-58
2.14059e-58
9.85134e-59
1.2036e-59
-1.90361e-59
-4.22276e-59
-8.91918e-59
-1.48052e-58
-1.98512e-58
-2.36142e-58
-2.61782e-58
-2.76988e-58
-2.82995e-58
-2.76043e-58
-2.53042e-58
-2.17088e-58
-1.73472e-58
-1.25824e-58
-7.83237e-59
-3.64284e-59
-5.5952e-60
9.29193e-60
9.46694e-57
4.6243e-59
2.80032e-57
-3.95657e-57
-3.91918e-57
1.39683e-56
4.56183e-57
-2.79767e-57
1.43635e-57
3.95065e-57
1.68708e-57
2.0443e-57
1.85107e-57
1.33953e-57
1.35017e-57
1.02111e-57
6.65234e-58
4.35814e-58
1.74521e-58
1.89052e-60
-6.50793e-59
-1.6803e-58
-2.95716e-58
-3.5056e-58
-3.44647e-58
-3.60182e-58
-3.95975e-58
-4.24053e-58
-4.503e-58
-4.72558e-58
-4.88717e-58
-4.94557e-58
-4.84345e-58
-4.53484e-58
-4.02253e-58
-3.3695e-58
-2.64638e-58
-1.89968e-58
-1.18454e-58
-5.75213e-59
-1.39645e-59
6.55998e-60
-2.43981e-57
5.93088e-57
5.59543e-57
5.28879e-57
1.60086e-57
1.51209e-57
3.24214e-57
5.57306e-57
2.1803e-57
1.28336e-57
2.64418e-57
1.84637e-57
9.39133e-58
7.09877e-58
2.38711e-58
-1.95014e-58
-4.15089e-58
-6.05599e-58
-6.48683e-58
-4.72474e-58
-2.51772e-58
-9.44184e-59
4.49539e-59
1.69849e-58
2.08235e-58
1.35087e-58
-1.3168e-59
-1.99202e-58
-3.74494e-58
-5.19009e-58
-6.26818e-58
-6.76987e-58
-6.65585e-58
-6.05698e-58
-5.14445e-58
-4.08898e-58
-3.02713e-58
-2.04597e-58
-1.1995e-58
-5.40461e-59
-9.612e-60
1.05962e-59
9.47895e-57
4.65893e-58
-4.26897e-57
3.48576e-57
3.22426e-57
2.10907e-57
-4.38084e-57
-7.50833e-57
-5.00223e-57
-6.88786e-57
-1.03821e-56
-1.06524e-56
-1.06881e-56
-1.06093e-56
-9.74655e-57
-8.20428e-57
-6.3043e-57
-4.23968e-57
-2.02287e-57
1.36161e-58
1.90269e-57
3.13178e-57
3.84468e-57
4.02827e-57
3.69693e-57
2.98309e-57
2.0653e-57
1.1237e-57
2.93289e-58
-3.48766e-58
-7.60136e-58
-9.38753e-58
-9.31893e-58
-8.10268e-58
-6.39314e-58
-4.6597e-58
-3.14429e-58
-1.92663e-58
-1.00896e-58
-3.59459e-59
5.42022e-60
2.40269e-59
-3.73107e-56
-2.98432e-56
-3.72421e-56
-2.69921e-56
-3.71652e-56
-5.01396e-56
-5.47763e-56
-5.64332e-56
-6.51152e-56
-7.18168e-56
-7.16857e-56
-6.94122e-56
-6.3853e-56
-5.46816e-56
-4.3359e-56
-3.09514e-56
-1.86755e-56
-7.67412e-57
1.31937e-57
7.82614e-57
1.16245e-56
1.29287e-56
1.23187e-56
1.04354e-56
7.90133e-57
5.28962e-57
3.02928e-57
1.34844e-57
2.77127e-58
-2.8072e-58
-4.76883e-58
-4.75251e-58
-4.08659e-58
-3.53879e-58
-3.3694e-58
-3.46442e-58
-3.47563e-58
-3.11049e-58
-2.32498e-58
-1.29507e-58
-3.41976e-59
1.81243e-59
-2.32633e-55
-2.22548e-55
-2.0659e-55
-2.13372e-55
-2.2422e-55
-2.17473e-55
-1.93255e-55
-2.0257e-55
-2.0935e-55
-1.92794e-55
-1.6989e-55
-1.46521e-55
-1.14572e-55
-7.96796e-56
-4.50398e-56
-1.34135e-56
1.07571e-56
2.59716e-56
3.21621e-56
2.97329e-56
2.07069e-56
8.31779e-57
-4.31308e-57
-1.45871e-56
-2.07487e-56
-2.22158e-56
-1.95355e-56
-1.40975e-56
-7.62731e-57
-1.68475e-57
2.64725e-57
4.91578e-57
5.2826e-57
4.32181e-57
2.74148e-57
1.16146e-57
-1.22567e-59
-6.30339e-58
-7.57716e-58
-5.79514e-58
-3.14452e-58
-1.51465e-58
-4.86115e-55
-4.57282e-55
-3.78999e-55
-3.7817e-55
-3.18413e-55
-1.82741e-55
1.03233e-56
9.82897e-56
2.05104e-55
3.59554e-55
4.63417e-55
5.24398e-55
5.59969e-55
5.52374e-55
5.0798e-55
4.34945e-55
3.37807e-55
2.2832e-55
1.17507e-55
1.4356e-56
-7.21532e-56
-1.35324e-55
-1.72154e-55
-1.83008e-55
-1.71341e-55
-1.43147e-55
-1.05825e-55
-6.68311e-56
-3.22733e-56
-6.02443e-57
1.04786e-56
1.79695e-56
1.86664e-56
1.53478e-56
1.05368e-56
6.01008e-57
2.66105e-57
6.42406e-58
-3.32546e-58
-6.7998e-58
-7.45358e-58
-7.3541e-58
2.03786e-54
2.05297e-54
2.08125e-54
2.2502e-54
2.5971e-54
2.94429e-54
3.41279e-54
3.9595e-54
4.45496e-54
4.74663e-54
4.84397e-54
4.69919e-54
4.30256e-54
3.69792e-54
2.94748e-54
2.13263e-54
1.33784e-54
6.33534e-55
7.28082e-56
-3.17523e-55
-5.37852e-55
-6.09498e-55
-5.69887e-55
-4.63276e-55
-3.3091e-55
-2.05191e-55
-1.06418e-55
-4.22562e-56
-9.83623e-57
-7.7988e-59
-2.18175e-57
-7.03035e-57
-9.13547e-57
-6.89729e-57
-1.55928e-57
4.37591e-57
8.58724e-57
9.82417e-57
8.15095e-57
4.69444e-57
1.13602e-57
-8.54559e-58
1.63102e-53
1.61564e-53
1.58148e-53
1.53124e-53
1.50123e-53
1.48452e-53
1.4882e-53
1.47649e-53
1.42639e-53
1.34357e-53
1.234e-53
1.06496e-53
8.61895e-54
6.40744e-54
4.16147e-54
2.12102e-54
4.66368e-55
-6.8325e-55
-1.27555e-54
-1.35034e-54
-1.02344e-54
-4.58179e-55
1.68519e-55
7.01198e-55
1.03407e-54
1.12671e-54
1.00203e-54
7.29271e-55
3.98213e-55
9.25881e-56
-1.29876e-55
-2.46251e-55
-2.65661e-55
-2.18132e-55
-1.40394e-55
-6.38017e-56
-7.54773e-57
2.23182e-56
2.96694e-56
2.34303e-56
1.32875e-56
7.03288e-57
2.98343e-53
2.77907e-53
2.45334e-53
2.18935e-53
1.78935e-53
1.01576e-53
1.59466e-54
-7.52334e-54
-1.50455e-53
-2.24633e-53
-2.90552e-53
-3.27256e-53
-3.39584e-53
-3.29532e-53
-2.9744e-53
-2.48821e-53
-1.89813e-53
-1.26485e-53
-6.501e-54
-1.05117e-54
3.31914e-54
6.37933e-54
8.0684e-54
8.4837e-54
7.85628e-54
6.50851e-54
4.79757e-54
3.05575e-54
1.54038e-54
4.03795e-55
-3.10372e-55
-6.47348e-55
-7.06338e-55
-6.02219e-55
-4.34749e-55
-2.71399e-55
-1.44766e-55
-6.05337e-56
-9.89571e-57
1.92149e-56
3.53492e-56
4.20136e-56
-1.49433e-52
-1.51031e-52
-1.5113e-52
-1.61401e-52
-1.7656e-52
-1.9778e-52
-2.26805e-52
-2.57375e-52
-2.82841e-52
-2.98875e-52
-3.03241e-52
-2.92317e-52
-2.66592e-52
-2.28592e-52
-1.82264e-52
-1.3259e-52
-8.46121e-53
-4.26705e-53
-9.69049e-54
1.2943e-53
2.54239e-53
2.93067e-53
2.69764e-53
2.11079e-53
1.41513e-53
7.92852e-54
3.45709e-54
9.7984e-55
1.55384e-55
3.37155e-55
8.58613e-55
1.2359e-54
1.25077e-54
9.24384e-55
4.21688e-55
-6.09535e-56
-3.80606e-55
-4.84745e-55
-4.04421e-55
-2.22323e-55
-3.70266e-56
6.49291e-56
-9.68651e-52
-9.53636e-52
-9.28537e-52
-9.0432e-52
-8.82427e-52
-8.61685e-52
-8.48718e-52
-8.3962e-52
-8.12343e-52
-7.5727e-52
-6.88277e-52
-5.9934e-52
-4.87901e-52
-3.66805e-52
-2.4637e-52
-1.35351e-52
-4.44447e-53
1.96615e-53
5.48916e-53
6.28192e-53
4.91238e-53
2.22521e-53
-8.6179e-54
-3.53203e-53
-5.22165e-53
-5.70453e-53
-5.08531e-53
-3.71225e-53
-2.04242e-53
-5.0232e-54
6.16717e-54
1.2028e-53
1.30638e-53
1.0808e-53
7.09185e-54
3.44024e-54
7.54386e-55
-7.07831e-55
-1.14799e-54
-9.78715e-55
-6.20729e-55
-3.92756e-55
-1.14573e-51
-9.99619e-52
-8.17648e-52
-6.79082e-52
-4.55545e-52
-2.3309e-53
4.81803e-52
9.86836e-52
1.39711e-51
1.78e-51
2.12674e-51
2.27212e-51
2.26522e-51
2.12741e-51
1.86678e-51
1.52308e-51
1.13568e-51
7.45043e-52
3.8481e-52
8.00515e-53
-1.53167e-52
-3.08602e-52
-3.88873e-52
-4.04165e-52
-3.69808e-52
-3.03667e-52
-2.23612e-52
-1.44804e-52
-7.78773e-53
-2.82987e-53
3.17083e-54
1.91748e-53
2.40691e-53
2.2376e-53
1.77471e-53
1.25465e-53
7.9419e-54
4.27405e-54
1.4828e-54
-5.71753e-55
-1.94045e-54
-2.56219e-54
1.04562e-50
1.05742e-50
1.04648e-50
1.11969e-50
1.1879e-50
1.28178e-50
1.43481e-50
1.60413e-50
1.73582e-50
1.8098e-50
1.82169e-50
1.74945e-50
1.59075e-50
1.36239e-50
1.08775e-50
7.95654e-51
5.15399e-51
2.71225e-51
8.04519e-52
-4.95785e-52
-1.21126e-51
-1.43565e-51
-1.31185e-51
-9.97977e-52
-6.33859e-52
-3.21085e-52
-1.12904e-52
-1.6074e-53
-4.7271e-54
-3.84553e-53
-7.89079e-53
-1.00923e-52
-9.61912e-53
-7.01343e-53
-3.5153e-53
-3.67768e-54
1.64359e-53
2.32674e-53
1.95993e-53
1.05488e-53
1.43133e-54
-3.51628e-54
4.91347e-50
4.85426e-50
4.71443e-50
4.53339e-50
4.39417e-50
4.21566e-50
4.19306e-50
4.13105e-50
3.91263e-50
3.61076e-50
3.34192e-50
2.90761e-50
2.36934e-50
1.80269e-50
1.21983e-50
6.86423e-51
2.39678e-51
-8.34813e-52
-2.62683e-51
-3.08164e-51
-2.44859e-51
-1.12757e-51
4.17633e-52
1.77435e-51
2.64902e-51
2.91519e-51
2.62204e-51
1.94392e-51
1.11077e-51
3.36869e-52
-2.31977e-52
-5.39847e-52
-6.11121e-52
-5.19892e-52
-3.53736e-52
-1.85072e-52
-5.68401e-53
1.77563e-53
4.64423e-53
4.65492e-53
3.59615e-53
2.82561e-53
-2.82664e-52
1.98816e-51
-5.40724e-51
-1.05169e-50
-3.06164e-50
-5.29328e-50
-8.20215e-50
-1.02407e-49
-1.24139e-49
-1.47319e-49
-1.61177e-49
-1.6304e-49
-1.57801e-49
-1.44036e-49
-1.2307e-49
-9.81668e-50
-7.19553e-50
-4.65839e-50
-2.41713e-50
-5.99434e-51
7.33873e-51
1.57823e-50
1.98581e-50
2.04033e-50
1.84388e-50
1.5035e-50
1.11258e-50
7.41913e-51
4.35327e-51
2.0956e-51
6.13324e-52
-2.39907e-52
-6.46589e-52
-7.69666e-52
-7.28521e-52
-6.00384e-52
-4.33114e-52
-2.58104e-52
-9.77652e-53
3.20047e-53
1.20512e-52
1.60351e-52
-6.57029e-49
-6.77718e-49
-6.87011e-49
-6.87706e-49
-7.14987e-49
-7.83941e-49
-8.68641e-49
-9.53302e-49
-1.01921e-48
-1.0658e-48
-1.07155e-48
-1.02957e-48
-9.40236e-49
-8.09069e-49
-6.50569e-49
-4.8046e-49
-3.15958e-49
-1.72341e-49
-5.90839e-50
1.88568e-50
6.20766e-50
7.63528e-50
7.01116e-50
5.26509e-50
3.23982e-50
1.52873e-50
4.28521e-51
-3.09342e-52
-1.38271e-52
2.33825e-51
4.90761e-51
6.20571e-51
5.86783e-51
4.30196e-51
2.26548e-51
4.63925e-52
-6.87703e-52
-1.11143e-51
-9.75324e-52
-5.55582e-52
-1.24035e-52
1.10998e-52
-2.08844e-48
-1.99383e-48
-1.8903e-48
-1.80021e-48
-1.61808e-48
-1.63714e-48
-1.64149e-48
-1.57431e-48
-1.43206e-48
-1.38201e-48
-1.28532e-48
-1.12128e-48
-9.21821e-49
-6.95607e-49
-4.65943e-49
-2.40645e-49
-5.16131e-50
8.3411e-50
1.59137e-49
1.71917e-49
1.32609e-49
6.05293e-50
-2.23872e-50
-9.48651e-50
-1.42104e-49
-1.58016e-49
-1.44758e-49
-1.11046e-49
-6.85886e-50
-2.82622e-50
2.46609e-51
2.05445e-50
2.68258e-50
2.46027e-50
1.79227e-50
1.02695e-50
3.89119e-51
-2.73128e-52
-2.28331e-51
-2.76361e-51
-2.51368e-51
-2.22991e-51
3.45853e-48
3.25676e-48
3.70598e-48
4.3829e-48
5.85001e-48
6.65267e-48
7.4805e-48
9.07503e-48
1.09213e-47
1.1652e-47
1.2041e-47
1.21035e-47
1.14902e-47
1.02878e-47
8.69587e-48
6.86342e-48
4.97156e-48
3.19609e-48
1.66203e-48
4.4926e-49
-4.1052e-49
-9.3153e-49
-1.16173e-48
-1.17117e-48
-1.03753e-48
-8.32325e-49
-6.12364e-49
-4.14936e-49
-2.5775e-49
-1.43704e-49
-6.67665e-50
-1.76958e-50
1.1781e-50
2.74273e-50
3.28895e-50
3.08286e-50
2.38123e-50
1.44938e-50
5.244e-51
-2.28296e-51
-7.26191e-51
-9.42191e-51
3.63507e-47
3.58258e-47
3.58213e-47
3.66059e-47
3.89038e-47
4.24585e-47
4.6767e-47
5.19605e-47
5.68317e-47
6.00353e-47
6.10126e-47
5.94929e-47
5.50525e-47
4.79529e-47
3.90213e-47
2.92004e-47
1.94665e-47
1.08095e-47
3.90641e-48
-9.08965e-49
-3.61974e-48
-4.53812e-48
-4.17549e-48
-3.1048e-48
-1.85118e-48
-7.93008e-49
-1.15384e-49
1.66004e-49
1.50867e-49
-1.19736e-50
-1.87333e-49
-2.91681e-49
-3.0067e-49
-2.34616e-49
-1.34302e-49
-3.88191e-50
2.73387e-50
5.70183e-50
5.63042e-50
3.81472e-50
1.68982e-50
4.68217e-51
5.57719e-47
4.26051e-47
3.33768e-47
3.32254e-47
3.37553e-47
2.68146e-47
2.1905e-47
1.52174e-47
1.89488e-47
1.97179e-47
1.44262e-47
1.14381e-47
7.99326e-48
2.61958e-48
-2.34704e-48
-7.43496e-48
-1.19185e-47
-1.3971e-47
-1.37633e-47
-1.15018e-47
-7.32698e-48
-2.20231e-48
2.83715e-48
6.93137e-48
9.4224e-48
1.0086e-47
9.17276e-48
7.18573e-48
4.73819e-48
2.39566e-48
5.45415e-49
-6.4338e-49
-1.19114e-48
-1.24184e-48
-9.88556e-49
-6.14275e-49
-2.5666e-49
5.37777e-51
1.49012e-49
1.94262e-49
1.84963e-49
1.67902e-49
-3.53607e-46
-3.66927e-46
-3.77473e-46
-4.26127e-46
-4.73662e-46
-5.38886e-46
-6.29684e-46
-7.32006e-46
-8.11901e-46
-8.75663e-46
-9.14002e-46
-9.09027e-46
-8.60756e-46
-7.72728e-46
-6.51925e-46
-5.13779e-46
-3.71115e-46
-2.36156e-46
-1.20689e-46
-3.08602e-47
3.12358e-47
6.68599e-47
8.052e-47
7.83535e-47
6.67573e-47
5.1361e-47
3.61988e-47
2.35452e-47
1.41754e-47
7.81323e-48
3.71587e-48
1.13447e-48
-4.65086e-49
-1.37861e-48
-1.7542e-48
-1.7013e-48
-1.35118e-48
-8.55943e-49
-3.53231e-49
6.28396e-50
3.43514e-49
4.67748e-49
-1.5444e-45
-1.41075e-45
-1.4217e-45
-1.40588e-45
-1.57517e-45
-1.86786e-45
-2.1353e-45
-2.38247e-45
-2.7694e-45
-3.08044e-45
-3.20795e-45
-3.19343e-45
-3.02032e-45
-2.67269e-45
-2.20026e-45
-1.65313e-45
-1.10016e-45
-6.02725e-46
-1.98642e-46
8.22296e-47
2.35027e-46
2.80312e-46
2.48599e-46
1.75221e-46
9.33453e-47
2.57644e-47
-1.64247e-47
-3.24333e-47
-2.88731e-47
-1.53405e-47
-4.85602e-49
1.01221e-47
1.44615e-47
1.32842e-47
8.78668e-48
3.38504e-48
-1.07267e-48
-3.62972e-48
-4.20041e-48
-3.3578e-48
-2.03741e-48
-1.20055e-48
1.35384e-45
1.88234e-45
2.06348e-45
2.67707e-45
3.02568e-45
3.22314e-45
3.6263e-45
4.1866e-45
4.22316e-45
4.2608e-45
4.41644e-45
4.34094e-45
4.15365e-45
3.89527e-45
3.5097e-45
3.0807e-45
2.56197e-45
1.99079e-45
1.42057e-45
8.49024e-46
3.09134e-46
-1.47602e-46
-4.94267e-46
-7.11796e-46
-7.97271e-46
-7.68962e-46
-6.56655e-46
-4.96602e-46
-3.24829e-46
-1.6988e-46
-4.95553e-47
2.92097e-47
6.84348e-47
7.61084e-47
6.3091e-47
4.04288e-47
1.72959e-47
-3.45322e-49
-1.02225e-47
-1.32906e-47
-1.25023e-47
-1.12106e-47
2.29578e-44
2.32191e-44
2.40698e-44
2.63085e-44
2.96147e-44
3.54106e-44
4.22495e-44
4.91282e-44
5.59544e-44
6.17886e-44
6.53335e-44
6.58937e-44
6.31373e-44
5.70901e-44
4.84519e-44
3.81829e-44
2.73722e-44
1.71394e-44
8.36629e-45
1.62753e-45
-2.87573e-45
-5.28771e-45
-5.99878e-45
-5.53974e-45
-4.45207e-45
-3.18242e-45
-2.03414e-45
-1.15722e-45
-5.74732e-46
-2.34474e-46
-5.76244e-47
2.70806e-47
6.73962e-47
8.75563e-47
9.62195e-47
9.51505e-47
8.47754e-47
6.63117e-47
4.22917e-47
1.67801e-47
-4.61584e-48
-1.56946e-47
2.11884e-44
2.03292e-44
1.67457e-44
1.63798e-44
2.44992e-44
3.49134e-44
5.43539e-44
7.65517e-44
9.63833e-44
1.14325e-43
1.30286e-43
1.34687e-43
1.29074e-43
1.16492e-43
9.57552e-44
7.0552e-44
4.49199e-44
2.14766e-44
3.03198e-45
-8.97067e-45
-1.45877e-44
-1.48218e-44
-1.14382e-44
-6.43407e-45
-1.52668e-45
2.11959e-45
4.01411e-45
4.27116e-45
3.38346e-45
1.97148e-45
5.80158e-46
-4.38714e-46
-9.51052e-46
-9.99201e-46
-7.31496e-46
-3.30856e-46
4.14723e-47
2.81568e-46
3.57547e-46
3.03799e-46
1.98061e-46
1.27497e-46
-2.84398e-43
-2.98352e-43
-3.23944e-43
-3.61774e-43
-4.07984e-43
-4.54457e-43
-5.08768e-43
-5.66261e-43
-6.18473e-43
-6.49956e-43
-6.72038e-43
-6.79421e-43
-6.50331e-43
-5.96127e-43
-5.20876e-43
-4.28208e-43
-3.2847e-43
-2.28805e-43
-1.36618e-43
-5.86074e-44
1.77851e-45
4.33535e-44
6.69841e-44
7.53944e-44
7.23215e-44
6.17908e-44
4.75573e-44
3.26668e-44
1.92476e-44
8.51609e-45
9.33016e-46
-3.59886e-45
-5.54654e-45
-5.58409e-45
-4.45767e-45
-2.86452e-45
-1.34735e-45
-2.26073e-46
4.10141e-46
6.491e-46
6.64305e-46
6.2627e-46
-8.20715e-43
-8.48003e-43
-9.1034e-43
-1.0126e-42
-1.21466e-42
-1.65327e-42
-2.19038e-42
-2.73544e-42
-3.26585e-42
-3.77233e-42
-4.1203e-42
-4.23731e-42
-4.11923e-42
-3.76287e-42
-3.20443e-42
-2.51541e-42
-1.78101e-42
-1.08259e-42
-4.87732e-43
-4.06446e-44
2.45315e-43
3.83338e-43
4.04677e-43
3.50016e-43
2.59655e-43
1.6547e-43
8.74758e-44
3.40241e-44
4.31299e-45
-7.6302e-45
-9.13797e-45
-6.44223e-45
-3.58414e-45
-2.39047e-45
-3.02525e-45
-4.68559e-45
-6.23678e-45
-6.73028e-45
-5.77508e-45
-3.69339e-45
-1.41092e-45
-7.97653e-47
2.84361e-42
3.1594e-42
3.56028e-42
3.73361e-42
3.5755e-42
3.22448e-42
2.53589e-42
1.90057e-42
7.96158e-43
-2.03834e-43
-7.55218e-43
-1.13402e-42
-1.2301e-42
-1.0453e-42
-6.48073e-43
-1.54021e-43
3.19149e-43
6.88062e-43
8.7936e-43
8.69692e-43
6.8603e-43
3.87357e-43
5.22208e-44
-2.44235e-43
-4.49669e-43
-5.40992e-43
-5.23142e-43
-4.2331e-43
-2.80676e-43
-1.33837e-43
-1.23011e-44
6.74338e-44
1.0206e-43
9.87638e-44
7.10476e-44
3.42077e-44
1.31832e-45
-1.95716e-44
-2.65001e-44
-2.28007e-44
-1.49123e-44
-9.62967e-45
1.88807e-41
1.91526e-41
2.12957e-41
2.39572e-41
2.87337e-41
3.46838e-41
4.13171e-41
4.84981e-41
5.58672e-41
6.19421e-41
6.59172e-41
6.77381e-41
6.58824e-41
6.06995e-41
5.27552e-41
4.26311e-41
3.16209e-41
2.08521e-41
1.12381e-41
3.50254e-42
-2.02475e-42
-5.35565e-42
-6.78592e-42
-6.78877e-42
-5.88015e-42
-4.5309e-42
-3.10772e-42
-1.84638e-42
-8.63105e-43
-1.84506e-43
2.19464e-43
4.06662e-43
4.43013e-43
3.90693e-43
3.00747e-43
2.08546e-43
1.32429e-43
7.63142e-44
3.58353e-44
5.47674e-45
-1.64277e-44
-2.72497e-44
-1.16064e-41
-1.36317e-41
-1.38048e-41
-8.97535e-42
6.57439e-42
2.83099e-41
6.35984e-41
1.03832e-40
1.38207e-40
1.71363e-40
1.98007e-40
2.09449e-40
2.06813e-40
1.89102e-40
1.59417e-40
1.23579e-40
8.44615e-41
4.77353e-41
1.80293e-41
-3.54398e-42
-1.62444e-41
-2.08433e-41
-1.9622e-41
-1.50316e-41
-9.31511e-42
-4.21654e-42
-6.43893e-43
1.21786e-42
1.65276e-42
1.19734e-42
4.11241e-43
-2.80597e-43
-6.43354e-43
-6.26311e-43
-3.19635e-43
1.08492e-43
4.80313e-43
6.68967e-43
6.36659e-43
4.39698e-43
2.00571e-43
5.77122e-44
-3.22033e-40
-3.45244e-40
-3.82457e-40
-4.23164e-40
-4.57676e-40
-4.89008e-40
-5.10968e-40
-5.37907e-40
-5.48475e-40
-5.55993e-40