/*--------------------------------*- C++ -*----------------------------------*\
| =========                 |                                                 |
| \\      /  F ield         | OpenFOAM: The Open Source CFD Toolbox           |
|  \\    /   O peration     | Version:  2406                                  |
|   \\  /    A nd           | Website:  www.openfoam.com                      |
|    \\/     M anipulation  |                                                 |
\*---------------------------------------------------------------------------*/
FoamFile
{
    version     2.0;
    format      ascii;
    arch        "LSB;label=32;scalar=64";
    class       volScalarField;
    location    "0.109";
    object      ddt0(rhoE);
}
// * * * * * * * * * * * * * * * * * * * * * * * * * * * * * * * * * * * * * //

dimensions      [1 -1 -3 0 0 0 0];

internalField   nonuniform List<scalar> 
8988
(
1216.84
-2242.55
-18368.5
29947.1
-5509.76
-7951.32
-20162.6
-9230.79
29482.4
-11367.7
-6167.48
492.238
4332.62
2577.85
-2481.88
-3637.29
-3493.79
-3182.06
-3118.62
-2706.86
-2205.86
-1816.08
-1863.53
-1672.15
-1612.52
-1667.7
-1716.01
-1763.52
-1772.88
-1606.77
-1318.9
-1120.87
-912.926
-591.966
-211.728
180.516
609.27
1106.81
1697.36
2477.21
3835.67
5447.56
-9593.66
5090.97
-85688.1
78755.3
200.956
-58896.6
-31465.7
44781.6
142.421
-29325
-25529
180.267
-5672.74
-10128
-9793.77
-7203.18
-7607.42
-7940.87
-7173.39
-7175.68
-6691.29
-6128.78
-5839.78
-5410.1
-4837.87
-3974.02
-3776.22
-3710.44
-3209.24
-2492.27
-1567.32
-1018.29
-379.347
476.471
1445.67
2357.6
3289.17
4413.42
5687.45
6954.85
7783.12
8285.11
69972.9
-5663.09
-124326
-80364.6
161297
-160979
15951.3
-41311.4
54493.1
14799.8
-35703.2
-37944.3
-10937.9
-9976.34
-14002.8
-13283.5
-11400.8
-12305.1
-12335.7
-11853.6
-11505.4
-10887.1
-10391.4
-9943.87
-9254.3
-8119.89
-6663.38
-5260.81
-4152.96
-2488.43
-1282.29
127.664
1116.56
2597.97
4268.14
5806.89
7133.64
8273.96
9120.85
9645.9
9843.22
10147.8
63101.1
-18637.2
-133699
-48198
186.791
-29777.6
77289.4
-110255
6972.31
23489.7
-7296.83
-59363
-21880.9
-3099.19
-18703.4
-22505.2
-16622.5
-15875.8
-16196.3
-14990
-14380.9
-13896.5
-13184.7
-12261
-11155.5
-9706.36
-8001.68
-6281.6
-4694.58
-2883.75
-1060.86
673.755
2546.25
4396.43
6297.63
7968.34
9293.97
10202.9
10836.8
11423.5
11877.2
12295.8
10091.7
-57199.4
73154.1
-65419.3
-108969
9847.12
2545.35
-9501.38
-59493.9
2203.22
-11247.4
-26210.8
-22751.3
-19840.4
-20300.9
-20383
-19152.5
-18844.2
-17492
-16067.8
-15452.9
-15018.7
-14230.7
-12677.8
-10969.4
-9473.11
-7977.83
-6071.36
-3978.28
-1488.56
669.826
2885.6
5120.17
7018.33
8798.28
10354.7
11340.3
11768
11954.2
11923.3
12649.7
13253.1
-48851.9
-13007.4
-21761.2
94800.4
-40391.1
-95565.2
-27236.3
57427.6
-4073.88
-66198.8
-12288
-9879.34
-22138.5
-18897.2
-17734.1
-18092.6
-18697
-18401.3
-16960.6
-14996.3
-14199.8
-14490.8
-14042.9
-11805.2
-9582.68
-8739.45
-8163.22
-6740.12
-3942.65
-1774.91
223.741
2227.96
4185.95
5994.95
7697.39
9091.23
10118.8
11142.6
11732.8
11867.1
12963.4
13320
-46240.4
-5775.23
-1075.25
-53055.9
118465
-5504.35
-96364.4
-14517.2
7011.38
792.684
-23013.3
-4370.64
-12209.3
-7923.34
-6937
-4915.88
-6753.94
-11621.9
-13974.2
-11030.8
-9057.88
-9680.74
-10521.7
-9215.98
-7468.1
-7169.29
-7579.46
-6736.81
-5218.35
-4001.51
-2746.13
-1178.85
646.901
2509.81
4393.73
6066.19
7844.43
9351.8
10452
10844.8
11752.5
11731.1
50386
-20307.3
-1948.46
-30669.1
-64536.7
85679.7
6028.33
-29085.3
-12341.7
4257.04
-4460.86
7941.83
-8392.85
-446.568
-754.648
4797.77
763.502
-7848.17
-10517.9
-6419.12
-5094.19
-6135.94
-7102.36
-6367.59
-5635.07
-5952.44
-6140.66
-5534.98
-5185.22
-5046.22
-4792.86
-4056.81
-2998.31
-1742.44
-28.6193
1806.56
3932.14
6098.75
7880.18
8578.53
8773.84
7802.26
-19431.9
15080.9
14757.4
49386.3
-9594.16
-65560.1
58092.7
11673.1
11350.6
-7570.18
16185.6
5657.45
3232.89
1322.68
1200.46
501.725
2026.3
2409
915.405
2290.44
2154.66
2248.98
658.498
-916.275
-1558.41
-2370.06
-3115.63
-3741.27
-4557.26
-5480.37
-6252.01
-6564.17
-6521.28
-6003.42
-4851.24
-3285.56
-1359.19
706.685
2462.95
3468.86
3929.46
3502.37
64322.5
19205.5
-65968.5
-21479.5
82906.3
17482
2093.84
-7585.07
21981.7
18187.4
20625
19045
16484.1
18893.7
15318.9
14795.4
16841
18875.7
17755.5
12347.6
10113
11475.6
10735.5
8610.89
5909.25
3785.08
1952.53
-241.422
-2567.54
-4595.15
-6139.7
-7297.11
-8189.13
-8639.54
-8667.32
-8217.24
-7536.83
-6643.8
-5506.85
-4206.09
-2919.99
-2178.09
-1050.91
4843.86
109332
-15881.2
-25591
-32830.4
118507
12837
-1546.26
24041.5
30248.6
22476.9
22356.9
24757.5
23563.8
20593.9
20948.8
21963.6
21935.6
18700.1
18279.5
19703.1
18062.1
15714.8
14318
12493.5
9820.41
6527.74
3041.8
-218.455
-3018.19
-5453.75
-7689.96
-9707.71
-11586.7
-13074
-14255.7
-15055.1
-15203.3
-14721.3
-13616.6
-13615.9
-11477.6
14927.2
56139.7
101500
8038.83
-4711.65
-20348.5
72255
34841.6
19398.1
36170.6
32822.2
23011.7
29358.7
27587.7
22784.7
25415.7
25530.7
24342.1
21663.7
22375.1
24094.7
22117.9
19610.4
19351.1
18799.5
16966
14575.6
11675
8239.07
4334.47
43.0539
-4476.42
-8934.8
-12973.4
-16287.8
-18653.2
-19842.2
-20744.7
-20944.2
-20540.7
-21026.4
103443
61653.6
-125363
-9281.78
121876
45494.7
18071.6
-13068.7
48976.6
41754.8
34069.1
32988.4
20504.1
34543.3
34748.7
23708.3
26373
27526.5
25979.6
25853.4
24815.7
26187.9
24627.3
22205.3
21575.8
20998.9
20081.1
19011.8
17652.8
15713.3
12788.3
8409.74
2523.49
-4376.37
-11189.4
-16880
-21045.7
-24844.2
-26790.5
-27789.3
-28327.2
-29519.6
5624.6
-2780.04
111721
-3808.96
-83940.3
137296
21249.5
29166
5213.65
45879.1
40493.7
31770.1
20306.1
33261.7
36344.8
25476.3
27708.9
28606.5
26862.7
26972.5
27090.3
26803
25876.2
24586.6
23390.5
22234
21215.7
20044.2
18655.3
17054.7
15012.2
12209.3
8371.77
3080.05
-3786.44
-11897.1
-19902.7
-26343.8
-31706.5
-34597.6
-36137.8
-37572.7
1053.22
65427.2
36134.8
31515.2
29865.2
-64917.7
105791
38928.4
11085.1
22396.4
45853.4
34838.6
22536.2
33552.7
32121.3
25517
27892.9
27910.9
26027.4
27212.9
26885.8
26546
26586.5
25576.4
23763.5
22518.7
21613.9
20088.6
18106
15674.8
13544.6
11692.6
8932.37
5594.73
983.221
-4365.58
-12604.4
-21694.8
-31396.9
-38696.9
-42863.9
-45523.3
7529.5
-4547.08
70158
78616.9
7420.88
25029.1
-18656.7
61452.3
36987.6
13384.3
32822.8
30682.4
30411.7
33701.7
24649.5
24516.3
29648.1
27574.3
25688.9
25520.5
26218.5
26587.4
25422.9
24403.5
23024
21652.3
20219.3
18678.6
16294.9
13796.2
11525.2
9311.13
7046.82
4645.61
1825.45
-2155.9
-8283.76
-17122.3
-25865.2
-35624.7
-44677.6
-50324.6
45347.2
9252.72
-16941.8
-6807.52
14059.6
83885.3
29184.5
5281.66
33454.5
42445
26497.3
17104.4
37553.5
30660.7
20703.3
28766.5
29332.4
24674.4
25310.6
24893.8
23552
24416.7
24836.3
22951
20607.1
19341.8
18004
16092.5
13695.3
11293.5
9073.93
6787.65
4340.86
1932.16
-607.127
-3703.9
-7695.58
-13045.9
-21814.4
-28371
-35467.5
-40905.9
4632.25
58176.9
40315.7
-13469.6
35358.5
-82638.6
104249
32153.8
1866.62
30840
28123
22999.7
31126.1
25015.6
21297.4
30224
24033.5
18587.5
21815.5
24506.9
21762.3
20880.2
21046.2
19458
17622.6
16074.4
14514.8
12831.3
10843.8
8654.82
6319.35
3751.61
953.295
-1787.53
-4461.49
-7280.04
-10309.2
-13521.2
-16982.5
-22744.1
-27229.8
-29241.2
-6158.67
-1721.4
59744.8
14564.9
39042.5
13426.8
-3093.65
32517
27393.2
18254.3
25510.9
24452.7
27836.1
23688.3
17990.6
24463.9
22091.2
15673.6
16526.9
20934.1
19947
16950.9
16323.1
15447.9
13703.6
12155.1
10513.9
8945.68
7275.22
5303.68
2953.35
276.624
-2569.36
-5327.75
-7876.9
-10238.2
-12232.6
-13713.3
-14659.3
-15055.1
-17781.8
-17434.6
37610.1
27437
-61046.6
-26409.3
7683.5
75244.1
27092.3
-13921
24303.2
23137
17708.7
18778.5
20448.6
20987.9
15755.5
15061.4
15914.6
13195.7
12413.9
14414.1
14763
13000.6
11822.5
10606.5
9143.87
7790.11
6257.22
4634.87
2941.32
1176.32
-867.36
-3215.98
-5609.16
-7854.92
-9773.83
-11333.4
-12291.7
-12491.1
-11595.6
-8322.67
-5904.36
-1033.6
37696.5
-34053.3
79367.2
14457.7
-109590
49121.8
23130.6
-52.6611
-692.792
18350
14518.3
13117.4
12449
12039.5
11974.3
8519.09
6166.94
8400.03
8967.54
7237.18
6039.17
7468.33
7112.19
5035.65
3672.22
2599.64
1827.6
549.663
-1361.63
-2995.29
-4352.6
-5837.38
-7333.8
-8720.5
-9775.61
-10363
-10027.7
-8479.72
-5492.9
100.393
4176.18
10524.4
36045.9
16455.4
-66033.6
-51630.8
110315
-39555.5
16703.3
-43171.3
21434.2
4973.05
-2774.18
7264.51
5222.58
691.608
3219.68
895.884
-3419.27
-203.333
2881.43
714.196
-1438.56
781.592
922.099
-1183.53
-2349.62
-3128.84
-3232.07
-3854.11
-5104.58
-5899.08
-6476.19
-7267.53
-7839.51
-8012.17
-7709.42
-6762.79
-4594.99
-1068.61
3152.69
8761.68
10938.7
16800.7
13527.1
-54680.4
23542.6
-14400.8
-103558
53143.1
16061.6
-38015.1
-10590.2
4583.76
-4514.59
-3801.71
-4973
-7286.64
-5704.33
-8209.22
-12141.6
-9580.09
-5669.05
-6978.22
-9635.69
-8105.51
-6276.82
-7100.46
-7862
-8125.26
-8023.26
-8302.67
-8494.03
-7928.02
-7352.26
-7138.18
-6536.13
-5194.04
-3021.15
-64.9318
3666.84
7785.66
11331.8
14933.5
15731.4
19425.8
38669.4
-36721.2
-15137.6
-5549.69
-113679
85618.2
-26765.8
-3151.96
-43524.1
-2970.64
-17082
-21502.4
-17833.7
-13490.8
-16639
-18972.6
-17739.2
-16475
-15194.6
-13786.5
-13984
-15466.3
-14802.9
-13270.4
-13275.1
-12972.9
-12087.9
-11256.5
-10302.9
-8814.71
-7004.1
-5093.34
-2701.9
297.634
3858.29
7587.48
11125.3
14167.5
16179.1
17902.5
19290
20934.1
31528.6
17952.8
-68793.4
-46823.2
-79774.8
118444
-6671.84
-74264.7
-33648.8
-10301.6
-32491.3
-33385.5
-24414.4
-22064.7
-28087.7
-29046.3
-24255.5
-22007.6
-22655.7
-21626.4
-20533.1
-20590
-19160.9
-17340.8
-16973.7
-16348.8
-14925.9
-12662.5
-10088.4
-7431.83
-4478.82
-1274
2253.47
5888.35
9424.41
12541.6
15195.4
17315.1
18554.6
19539.1
21267.9
22177.8
-80720.3
25116.6
-15949.1
-1695.41
-35175.7
-53186.1
-28646.3
-807.752
-38108.1
-34102.6
-23635
-34223.7
-29603.6
-26352.2
-31945.1
-32705.3
-27679.2
-26939.4
-27563.2
-26063.5
-25274.5
-25158.6
-23009.8
-20070.5
-18376.1
-17063.8
-15341.6
-12501.7
-8741.53
-5055.83
-1528.17
1921.22
5450.66
8862.92
12004.2
14637.4
16907.2
18784
19835.8
20511.4
22006.3
22581.9
-98106.7
-57023.9
57215.4
28444.5
2426.9
-100923
-64626.8
-16784.2
-14529.1
-43159
-33089.4
-37662.4
-35429.2
-32475.3
-34673.4
-33776.8
-31146.1
-30039.5
-28295.6
-26859.9
-27142
-26608.2
-23850.6
-21022.5
-20034.2
-16514.7
-12672.8
-11069.3
-8034.62
-4334.43
-704.996
2846.59
6348.64
9583.66
12485.9
14882.8
17008.5
18949.3
20127
20620.8
21766.6
22188.9
-21253.9
8930.05
-101717
-54889.3
12874.9
-28645.7
-10278.6
-66773.9
-26004.5
-22317.9
-39160.8
-35835.8
-32185.7
-33526.5
-32942.8
-31663
-31317.4
-29507.6
-27250.4
-26301.4
-25849.3
-24384.3
-22485.3
-20784.1
-18370.8
-15443.6
-13100.2
-9491.62
-6364.82
-4266.53
-1196.77
2184.31
5465.66
8299.78
11080.5
13711.9
15922.6
17902.1
19368.3
19900.8
20861.4
21180.6
-16393.1
18278.9
-44438
-37678.6
-1133.1
-70752.7
-596.407
-7029.34
-27635.1
-41873.5
-23005
-29287.5
-30881.7
-29739.5
-29125.2
-28488.4
-27497.1
-25446.5
-23694.3
-23183.3
-22309.5
-20280.2
-18335
-18003.5
-17213.4
-14589.8
-11505.3
-9057.1
-7222.7
-4838.98
-1826.58
995.257
3614.66
6158.14
8768.97
11389.5
13715.9
15702.8
17395.6
18495.4
19667.8
19930.9
31823.6
-65712.1
12383.9
-4265.24
-103753
75200.2
-26668.6
-23449.8
-37610.6
-15400
-22438.7
-22078.7
-22210.8
-23140.9
-22673.1
-21959.2
-21160.3
-19975.5
-18893.3
-18231.2
-17483.5
-16462.5
-16185.8
-15977.7
-15067.1
-12952.2
-10689.3
-9069.2
-7509.97
-5468.7
-3170.17
-751.846
1668.78
3917.18
6025.24
8381.57
10837.5
13040.6
15106.6
16535
17685.8
18314.1
-25428.4
-947.983
-1879.29
-65503.1
135975
-10715.3
-65253
-54974.6
23429.6
-19692.7
-19942.8
-12424.9
-14675.1
-12888.4
-13312.6
-16859.3
-16404.5
-14337.6
-13764.2
-13931.8
-12282.5
-11506.6
-12595.5
-13407.4
-11811.4
-10217.6
-9642.55
-8881.2
-7299.1
-5744.62
-4420.13
-2699.42
-567.353
1552.46
3401.75
5468.94
7809.01
9977.35
12145.8
14040.8
15354.5
16321.9
-61318.9
-27687.9
12819.1
70182.6
23599.2
12625
-105881
30879.4
2364.2
-13007.8
-10344
-2444.6
-11373
-6992.07
-5731.63
-11542.5
-9307.21
-7641.29
-9107.98
-9484.87
-7632.67
-8165.46
-10039.6
-11029.7
-8183.6
-6778.21
-7528.39
-7403.33
-6026.76
-5081.99
-4646.09
-3731.61
-2259.87
-616.327
930.238
2726.84
4784.87
6739.87
8926.81
11129.3
12453.4
13547.2
14675.3
-64293.7
48218.2
-38146.9
-56904.4
-7320.01
92727.3
-5518.89
-39328
-6677.35
7878.22
-5695.52
-4809.41
-122.604
-2609.55
-6871.55
-3501.7
-2202.76
-5405.48
-4517.17
-2435.28
-3557.17
-5590.21
-6949.41
-5139.58
-4578.86
-5278.6
-5088.45
-4320.1
-4054.92
-4068.92
-3661.08
-2946.36
-2090.65
-1060.89
357.365
2043.67
3677.46
5662.04
7675.42
8919.74
9723.71
5074.52
58271.5
-38123.2
-36494
29160.6
-104076
128313
-40030.2
19400.4
-23095.3
9358.23
2780.08
704.835
2017.95
-226.495
-791.599
49.2076
1.36854
-947.122
-606.993
311.341
101.841
-574.272
-1502.32
-1927.74
-2344.26
-2434.35
-2389.56
-2418.19
-2669.96
-2915.25
-2811.8
-2616.01
-2451.3
-2066.22
-1265.92
-204.191
820.047
2222.19
3636
4870.09
5083.89
-11506.7
-3785.41
9741.22
-71434.4
171350
-59979.4
2809.88
-48269.2
41915.5
19388.7
-3284.26
4895.47
7071.66
2214.61
2887.76
2951
1326.97
2763.84
3937
2937.99
1792.48
1870.6
2218.49
1517.13
963.822
1005.98
868.336
221.164
-163.66
-441.315
-958.077
-1429.09
-1784.52
-2113.4
-2307.65
-2265.05
-2001.2
-1737.56
-1153.77
-575.334
389.109
-51.823
42277.9
-53313.3
31351.7
21379.3
-88022.8
110668
8135.81
10270.6
-23819.5
21391.1
12947.3
4468.76
7610.38
6610.72
6180.19
4581.56
3436.43
6137.07
7517.19
5981.34
5100.66
4771.87
4532.59
3663.24
3182.91
3443.36
3034.18
2086.03
1604.34
1405.49
954.973
288.823
-481.745
-1300.33
-2095.9
-2819.6
-3360.53
-3886.15
-4208.69
-4562.99
-4145.48
-5127.45
-52697.4
49079.2
27840.5
76830.9
-10803.9
-32690.7
-80338.1
110983
5847.65
3179.5
2633.69
13798
8475.03
6685.49
9520.5
7523.3
6522.68
8498.55
8370.21
6569.03
6759.44
7250.43
6653.47
5980.02
6021.89
5485.34
4552.27
3692.72
3425.23
3105.77
2375.49
1459.72
481.982
-597.515
-1838.8
-3194.37
-4421.26
-5634.79
-6748.27
-7891.82
-8128.48
-9579.89
-9117.18
865.392
-6894.51
-93903.7
183526
-50194.9
8297.22
-67873.3
54204.8
29106.3
1243.33
8727.42
10324.6
9164.31
8803.36
6979.64
9443.36
10905.7
9585.81
9016.02
9307.75
8482.98
7696.81
7955.61
8458.63
6833.78
5523.54
5231.93
5101.18
4410.32
3445.77
2365.3
1109.5
-264.217
-1804.32
-3560.19
-5283.11
-7009.24
-8678.26
-10290.6
-11039.9
-12810.7
51560.1
-68916.2
42016.4
-1361.33
-110054
180747
-44134.3
10251.8
-27257.2
20862.4
16134.2
5918.93
9411.02
13092.1
8986.23
9345
11821.5
10361
9494.78
11358.7
11529
8914.11
8709.84
8400.38
8933.2
7952.38
6656.23
6944.47
6148.77
4863.52
3936.81
2834.53
1354.36
-219.861
-1909.22
-3851.16
-5836.63
-7854.99
-9859.55
-11641.3
-12613.4
-14420.6
13462.7
38061.5
13603.5
-9137.6
6016.34
-102474
104135
2290.47
48968.7
-50042.1
11435.5
11118
10211.4
12510.3
7587.62
13476
12803.3
7601.67
12076.3
13701.9
9637.29
8191.14
9909.64
9672.8
8210.59
7181.72
7765.39
7533.4
5565.42
4763.2
4321.15
2946.96
1194.22
-420.812
-2079.99
-3993.21
-5988.14
-8028.29
-10144.4
-11907.3
-12849.8
-14403.3
-37583.7
-37270.6
50453.5
114240
-55665.3
5882.05
-97363.2
121001
-33291.2
25630.7
-6091.02
14545.3
10794.6
9015.89
12093.7
11934.5
8591.55
10327.8
12472.5
11365.9
8287.6
9645.98
9974.98
8165
7583.46
7305.78
7676.37
6200.46
4325.59
4736.6
4004.17
2336.55
841.338
-652.758
-2293.99
-4045.79
-5786.94
-7501.34
-9552.71
-11131.7
-11797.8
-12944.6
-966.882
16932.5
-20500.5
-106335
172821
-38940.9
10358.1
-91690.3
68414.4
22781.2
6311.79
6950.16
13559.9
6610.88
13362
11768.4
4558.39
13756.5
13741
4405.06
6335.55
11301
9475.66
4774.03
5540.8
8246.88
5957.27
4395.72
4599.72
4436.24
2518.78
1089.06
283.333
-796.029
-2222.03
-3802.11
-5314.98
-6517.82
-7844.42
-9161.57
-9925.85
-10671.5
26092.8
-39759.1
62547.5
-43923.8
-51757.9
-13001.3
119737
3981.23
-42989.2
-2814.77
25011.7
13339.2
12400.1
8541.84
11078.2
9521.09
7284.18
11339.7
11059.4
4113.72
6565.72
9286.96
5461.06
3846.63
4990.81
5612.62
3669.28
4157.02
4087.46
2121.44
1508.13
744.805
-35.1436
-874.38
-1830.49
-3153.1
-4516.72
-5277.01
-5921.59
-6741.59
-7367.77
-7890.04
105943
2211.23
-45025.5
6472.06
-50702.1
-94517.9
206036
5941.51
-56026.3
-5171.3
28813.8
3567.25
8356.23
7598.77
5646.36
4996.68
8634.3
7322.11
3095.34
4638.64
7603.65
5841.89
2623.99
3221.12
4225.97
2851.48
1983.67
3449.36
2908.71
1250.17
638.2
75.7379
-240.431
-748.007
-1397.52
-2240.91
-3202.4
-3661.88
-3903.6
-4345.22
-4774.33
-5001.36
-26530.8
29920.7
1662.32
-9766.06
109853
-29885.3
-40531.5
-10939.6
38910.3
14531.1
2540.05
10836.4
9145.85
4699.17
4298.85
5314.74
2401.42
4023.73
6837.94
4042.55
-162.534
2460.65
5055.47
2384.89
-707.845
281.861
2932.96
1990.35
559.807
540.206
234.054
-231.643
-512.977
-704.208
-820.97
-1045.03
-1638.59
-1997.52
-2024.59
-2177.63
-2421.91
-2418.03
25046.4
7893.51
-20338.6
-103016
177223
-41042.4
-3812.35
-82479.3
55324.2
24029.7
9724.08
2289.3
555.592
-72.6894
10587.4
3680.74
-3423.29
-4189.53
5374.36
10006.7
-8439.62
-2489.49
7121.86
3010.82
-4181.13
-1730.59
3873.14
206.418
-1437.64
-176.783
241.771
-1.76354
-344.486
-602.133
-423.381
11.9936
-89.9194
-430.494
-451.354
-415.021
-460.785
-292.415
7993.44
-26228.5
2477.11
-2712.67
-110460
151753
1298.98
-67649.1
-13322.7
22052.3
4230.99
6614.39
3126.64
-10777.3
8887.06
4344
-14571.1
2628.45
5288.73
-4239.05
-7732.38
887.811
3913.63
-2286.07
-4533.36
-128.482
2221.99
-1785.47
-2152.8
-191.006
-69.2528
82.406
133.493
-105.795
-4.18688
723.917
1103.6
926.056
880.198
988.697
1096.72
1428.21
4540.04
86766.3
-79732.9
1448.65
-74949.3
140621
-16705.1
-77278.9
-14440.9
17922.7
744.752
-1241.45
-210.141
-5154.68
-2808.72
-3725.86
-12700.1
7258.06
6694.37
-12921.8
-8984.37
3021.31
2234.91
-5294.52
-4509.1
72.5617
-558.25
-2784.48
-1918.9
-377.688
-461.832
-44.9388
480.693
402.495
449.985
1239.78
1849.16
1921.77
1988.38
2115.84
2231.85
2683.24
8092.1
87117.8
-100304
-36149.7
-2246.97
76294.5
-13741.6
-87026.4
13868
11623.1
4019.48
-9961.23
-2708.93
-6541.33
-7078.01
-3324.93
-12787.7
-778.197
8443.65
-14185.4
-6899.96
2912.42
-2612.14
-6473.53
-2534.27
277.017
-2400.36
-2777.84
-1180.6
-759.472
-770.35
-337.903
397.355
751.255
1049.69
1674.69
2126.75
2424.01
2775.53
2983.92
3002.8
3481.77
81241.7
-63445.9
13068.8
-24923.6
-54678.2
-92000.5
205392
-27624.6
-77876.2
-27042.2
21535.8
-17612.9
-16109.1
2979.42
-1630.18
-17968.8
-6198.69
757.729
-6621.75
-6797.35
-1448.18
-1125.34
-6394.25
-4600.36
-439.722
-1407.3
-2947.44
-2233.95
-878.056
-728.376
-575.168
-313.268
156.809
731.815
1424
1967.11
2263.58
2620.69
3115.21
3406.01
3408.35
3936.36
-26927.4
-63057.6
129737
-54905.6
16981.3
-41960.3
20754.8
-19810.3
49956.3
-48923.5
-2543.39
-868.131
-13098.2
-5112.23
-5637.27
-10319.9
-5704.63
-4790.89
-8093.93
-5547.33
-2726.6
-4935.11
-4932.44
-2287.96
-1750.25
-2667.15
-2436.9
-1853.79
-1390.8
-1002.1
-533.224
-99.3795
157.24
755.391
1522.37
1947.22
2293.53
2699
3155.1
3423.9
3468.28
4017.56
10423.8
-45569.4
-1925.95
41388.1
-128244
151948
-75975
-213.096
-36006.2
17321.3
5030.9
-13658.7
-10174.9
-8393.5
-5877.34
-2755.45
-6191.05
-9033.02
-4717.72
-1463.64
-3335.48
-4916.31
-3267.54
-1965.03
-2418.18
-3092.81
-2897.62
-2496.94
-1507.41
-851.7
-611.187
-126.668
195.779
640.123
1321.45
1798.7
2299.53
2705.71
3168.65
3384.16
3357.99
3751.38
47307.5
62464.9
-73273.9
8514.22
-35277.4
-94237.4
96882.2
12608.4
-73905.1
-12231
24699.8
1702.43
-9768.65
-4137.34
-3281.46
-4671.42
-2182.24
-3068.69
-5629.91
-5879.59
-2833.22
-2214.15
-3814.29
-4428.19
-2863.3
-1932.63
-2259.72
-2415.84
-1721.93
-1100.7
-599.461
-12.1585
292.655
601.598
968.595
1326.91
2046.01
2591.3
2867.46
3256.55
3391.1
3508.08
-10551.3
-11376.4
10952.8
-110530
190209
-68863
-29048.5
-75754.8
48724.5
11805.4
5568.5
729.871
-4151.06
-3028.25
-4294.09
-3833.3
-764.912
-718.48
-2665.92
-2574.33
-1659.18
-2214.68
-4361.89
-4272.09
-2203.56
-1909.16
-2652.27
-2272.32
-1303.9
-1083.9
-1106.22
-472.04
90.5403
351.06
731.318
1147.58
1790.24
2204.28
2526.1
2993.65
3252.63
3360.18
18778.3
17346.6
-15904.4
-22264
-133156
229415
-83868.1
-9395.39
-38511.6
43815.5
-172.413
-9539.48
5931.22
2765.2
-12694.6
126.506
8198.79
627.712
-2267.83
-2379.61
-3574.18
-3087.46
-1716.81
-2056.12
-2561.86
-2251.33
-2330.93
-1903.06
-1640.51
-1656.94
-894.42
-101.226
-27.3151
-14.3227
377.48
925.803
1570.69
1931.2
2166.7
2631.58
2936.71
2998.85
-67191.8
75266.9
29831.7
-34673.6
10275.6
-100333
98232.2
-4437.72
44737.6
-75937.9
11404.4
14420.9
13941.7
5779.73
-11234.5
5546.46
561.264
-15026
7429.29
10267.4
-5231.48
-10118.9
-710.045
2913.97
-1951.84
-2355.69
-1900.87
-809.509
-1851.41
-2257.29
-487.539
48.3723
-87.5553
-59.0026
334.117
784.627
1317.27
1661.81
1800.87
2207.53
2503.06
2447.3
1791.62
7576.09
3092.35
-88100.7
154155
-53226.1
-294.033
-75997.1
86135
-7203.33
6464.81
-3318.39
3796.58
6986.14
-921.955
13523.1
5221.74
-19614.4
7875.25
15324.6
-9875.19
-9943.95
1119.73
3610.78
-3309.68
-2274.25
428.247
-665.168
-2286.29
-1583.77
281.927
352.105
-343.463
-156.933
423.513
742.546
1049.28
1348.37
1439.7
1724.26
1962.69
1722.8
50653.5
-56070.4
41915.4
24403.7
-148264
136564
21125.6
-50443.7
-21175.6
13839.7
40444
-15172
-3986.83
10030
6995.46
677.916
-922.801
-6383.31
3755.3
6264.63
-5857.4
-3203.28
3389.35
1992.98
-2170.27
-969.297
1067.48
-812.019
-2503.71
-1201.96
234.223
125.522
-184
161.498
505.587
528.818
646.563
927.16
1008.72
1154.05
1329.31
843.437
-34659.4
-36963.3
121021
175255
-143650
-22372.2
-66005.1
174053
-53607.8
-21221.7
3901.82
12532.4
-320.468
6135.59
2333.13
-832.378
-174.678
1690.29
3402.4
2595.76
-4199.57
-1756.46
1848.07
476.88
-2592.18
-462.595
1301.28
-418.143
-1715.47
-732.616
593.204
-48.4395
-453.915
295.051
644.93
369.998
262.101
453.396
457.853
420.645
538.643
-163.33
-76457.5
-85108.6
91980.5
158662
-96564.8
-3695.64
-114139
234133
-79416.8
72615.3
-82510.4
7492.17
-2597.31
-632.079
-3032.13
4794.1
4607.42
-6151.1
-1251.95
6519.67
1367.9
-3233.55
386.176
2370.64
-1442.2
-926.848
823.365
-257.962
-1464.72
-187.039
584.496
-600.579
-566.232
397.82
555.944
69.8411
-120.643
-18.4505
-122.573
-355.085
-297.41
-1164.96
-61256.2
97371.3
-101042
-49265.2
-22290.3
124635
-6075.93
-81510.9
-22234.5
51513.5
1610.4
-423.34
10584.8
6689.79
-10080.7
10032.1
7192.29
-16650.4
32.7534
8263.17
-1421.3
-4314.51
1251.14
2520.22
-1489.04
-996.965
720.258
130.834
-527.812
-0.363838
111.387
-483.405
-357.29
21.6377
0.568151
-219.972
-346.643
-375.994
-604.333
-1012.25
-1018.35
-2046.33
54468.2
-44508.4
15757.5
4364.85
-72385.1
-814.509
114905
-6743.21
-77860.2
56262
-19978.7
8235.41
-1757.56
-2361.48
-8937.72
11295.5
4512.62
-21739.2
14335.6
18685.9
-15871.7
-6580.47
6473.73
4929.1
-2934.34
-805.644
2701.32
450.773
-248.215
-183.107
-338.112
-39.4784
237.542
-232.955
-659.671
-508.08
-577.6
-750.989
-1071.53
-1634.59
-1683.62
-2799.54
75975.3
45827.5
-79182.4
-18199.8
3894.26
-116280
230022
-89493.6
-5012.72
-36588.1
2560.93
15128
-74.0262
-4197.93
2383.83
4680.86
7439.27
-27659.6
23749.2
22499.2
-24076.2
-8347.18
11544
10808
-7785.15
-3810.77
7161.84
1656.77
-939.809
-607.269
541.013
96.9578
243.857
-233.242
-757.79
-672.123
-797.525
-1084.61
-1755.66
-2227.89
-2183.18
-3256.76
5258.22
18020.4
17476.7
-125619
285471
-108002
-96450.6
-48938.1
58004.6
50345.1
-49883
4674.21
-3821
-1953.6
1905.12
4515.09
4201.9
-7225.67
364.656
6745.53
-9899.29
6312.21
4951.19
-3790.86
-5005.37
5894.14
7105.23
589.411
-328.263
736.055
376.55
207.528
207.369
-271.888
-531.211
-843.846
-1234.87
-1395.81
-1891.8
-2588.33
-2541.78
-3453.69
-123538
-16390.9
96563.8
117089
6801.21
-38189.7
-71507.4
-91856.9
193416
-57391.3
-8815.13
-8931.01
-7265.12
-10994.6
-3386.78
3004.88
-3230.65
7499.52
6130.92
-11109.2
2561.75
5472.32
4279.69
-5057.69
-122.237
6997.14
1860.97
-103.955
987.225
1456.84
195.598
130.054
107.433
-226.501
-517.754
-805.231
-1188.15
-1683.93
-2217.07
-2675.85
-2737.21
-3402.82
-51136.2
-76959.9
179258
69459.2
-96573.3
-63022.3
-103612
301088
-117215
-25847.1
-22569.7
-2059.32
-3905.34
13417.7
-88.8427
-10043.1
14250.4
4936.46
-5486.81
-7732.95
4297.61
15612.1
-5950.42
-3002.11
7260.89
3726.62
-455.562
247.891
2534.82
76.0064
-154.44
551.699
-15.7772
-353.423
-831.975
-965.481
-1212.31
-1866.9
-2105.26
-2498.64
-2846.57
-3195.82
-159596
-59814.9
120903
255819
-120259
-179451
-137348
331425
-87543.3
-88098.9
48849.2
-13924
4148.44
11332.2
95.6863
-3272.35
8935.28
5850.51
-5974.07
1344.33
8292.74
-397.945
585.315
3828.27
3104.85
15.3217
1172.4
3121.22
727.483
-201.827
378.993
111.103
-167.221
-349.858
-742.865
-856.613
-1240.73
-1987.69
-1898.84
-2280.38
-2781.08
-2864.95
-25217
-98056.3
177036
-45230.2
-138384
-20220.2
252708
-76560.3
-49957.5
-32761.2
37030.3
-11233
14256.3
3170.96
-2887.46
6270.31
5801.9
780.325
-292.093
3813.98
-4378.43
5903.59
5603.54
1530.39
-3082.15
1215.84
5400.66
1632.73
-364.854
1189.19
1642.78
163.133
-127.501
-523.882
-753.166
-781.332
-1174.24
-1863.64
-1557.08
-1987.15
-2384.85
-2350.7
-101093
86575.8
75007.7
-128344
-174355
-52037.5
384027
-94878.7
-85427.1
4614.05
12735.9
-8214.61
9403.62
-3246.28
1266.68
5722.07
-398.649
4225.9
2851.19
-2799.27
-407.266
4498.35
6008.54
-1811.89
-1451.56
4198.79
3341.33
361.01
431.503
1675.04
499.996
51.8654
45.9988
-305.851
-542.837
-694.71
-1012.87
-1499.18
-1081.78
-1585.73
-1617.31
-1613.63
130800
80425
-116236
-33776.4
-112950
-150766
316550
-111220
-92128.3
126408
-27682.3
-24132.3
13018.6
-5295.36
-641.326
144.987
7265.2
2237.59
-2042.65
-3093.17
5167.83
5987.83
-2533.7
-2153.06
3451.72
3035.66
-258.412
25.5425
1955.72
12.7121
-471.158
398.879
-13.5867
-136.198
-274.076
-466.595
-636.65
-989.631
-480.775
-1025.2
-588.732
-688.804
173664
-141544
10353.4
-123924
-151640
475392
-207341
-65404.7
-90280.2
107834
25948.8
-25384.6
12360.5
-10329.6
3500.7
-1038.62
583.822
-373.905
-4406.41
5148.52
3813.32
-1326.94
-3588.18
723.904
1905.19
-213.244
262.891
1732.34
171.148
-649.024
266.747
62.9071
-305.384
-152.521
-117.074
-113.205
100.599
-217.108
383.167
-260.486
426.164
189.907
-8169.57
218241
-465659
56568.9
42468.8
266126
-141462
-95714.9
112698
-31390.7
33574.8
1512.95
-3275.12
-8446.83
-3346.18
14812.8
826.989
-13631.1
2982.75
5438.28
-622.162
-6505.92
2162
4516.47
-2315.55
-2273.5
1950.08
1285.16
-1790.65
-1268.83
675.959
122.326
-185.483
-85.0593
-189.479
-45.41
671.65
343.729
1258.81
670.541
1417.17
987.451
-103804
32597
171342
-181177
369360
-216411
-143676
-129411
332572
-51881.2
-18722.7
15686.2
-27974.2
12866.9
9633.97
1587.68
836.53
-19059.3
12913
9602.35
-14328.7
-814.721
7277.96
-396.354
-6842.41
-1405.55
3123.74
-472.613
-2241.88
-1262.26
-231.828
90.3456
40.2661
318.606
93.5243
327.11
1315.84
804.287
1937.67
1394.49
2089.73
1522.8
-228644
-91082.8
175761
528034
-450605
-167190
-45711.6
485066
-151604
-87978.5
57728.4
-12750
-799.275
14467.8
9503.97
-4385.26
-18062.1
13421.7
2118.27
-5672.74
-13243.2
5180.59
5313.51
-1788.4
-5546.44
-2418.65
1123.71
1166.66
-235.521
-3308.68
-1889.04
1430.82
501.143
490.153
452.766
888.955
1892.44
1398.34
2529.14
1849.58
2304.28
1644.46
-5787.24
33509
234588
-311783
-226225
41019.7
474035
-189197
-68420
-45977.2
60487.6
20443.8
2175.73
12399.4
-3740.07
-11026.3
4514.63
7673.67
-3670.25
-7517.02
-246.983
2676.82
1534.38
1043.56
-3285.06
-5449.53
1545.98
2517.89
-1931.63
-3616.36
-226.272
2072.25
433.429
389.782
650.102
1247.03
2131.79
1869.37
2780.81
2067.77
2333.01
1758.97
67808.6
-38658.9
-87626.5
-48764.3
-133504
517543
-244016
-119659
-57471.9
132820
-45784.2
6821.25
16043
-290.522
4210.35
-465.904
1200.44
675.269
-1831.05
-805.244
-748.232
3861.83
-1521.55
-2130.89
-7837.77
-2336.82
3927.36
3179.04
-3756.22
-3454.73
2913.35
-291.257
-562.842
427.103
970.627
1240.35
1937.71
2188.62
2967.56
2276.47
2379.35
2100.67
73554.7
163694
-426418
-25.1551
47292
279764
-159007
-89388.6
153320
-88077.1
5994.38
13447.6
-6486.25
244.447
9370.35
-4109.94
-11957.6
4651.24
-3878.93
-11594.1
-6426.93
5559.5
8713.1
-16325.4
-14333.5
6848.11
3893.9
-6107.32
-5363.37
3942.5
1703.18
-1087.8
-164.682
473.622
1100.99
1259.45
1970.27
2262.21
2863.27
2400.27
2284.57
2238.36
-254901
-4490.86
158042
-35314.5
97229.2
-102704
-98269.2
162348
-36041.9
58245.7
-41784.8
-6292.27
-3674.63
11536.9
-12630.8
-11880.3
6531.24
-7514.67
-10306.5
-18601.4
19184.9
677.839
-14567.8
-14392.7
7176.12
1592.12
-5262.98
-7568.13
755.503
2492.08
-1311.03
-657.578
223.25
1677.76
916.426
1000.26
1721.49
1770.4
2253.9
2244.79
2061.03
2081.62
15145.1
21941
-9377.15
-50943.1
21901.2
-112312
305764
-128780
-52332.6
34910.8
-7636.69
-5058.65
8219.23
1344.8
-6546.35
-21279.5
13192.6
-1361.17
-20083.4
-878.805
-6348.21
4649.85
-19237.1
5790.22
5871.64
2995.52
-8442.08
-4681.62
3705.44
-483.657
-1356.51
-2099.66
1530.34
1747.65
912.95
612.746
1181.16
1374.77
1763.12
1932.35
1790.29
1717.04
327815
-240285
-91652.2
-142876
-64500.5
559195
-280148
-79631.4
-32866.6
32093.9
19103.1
21262
-4624.09
-14921.2
5830.49
-11359.1
9505.01
4332
-23692.9
16083.9
10812.9
-12815.3
-8035.61
2704.29
7441.71
-8084.02
-6124.64
4652.4
283.985
-1861.13
-2280.71
1489.26
1030.01
706.685
735.856
148.553
623.899
1209.78
1371.78
1508.92
1514.55
1207.16
-43875
218776
11510.8
-99500.2
337968
-287000
-99333.4
-116526
375026
-116045
-99507.8
40617.4
-43377.7
-2313.93
-807.361
17521.8
3302.68
-11290.9
6016.43
-3146.37
-4086.01
-9797.01
16856
4729.78
-16692.6
-13655.9
11414.7
5903.45
-2705.41
-3381.33
2488.05
2552
263.823
330.976
552.066
377.252
279.546
507.852
720.942
930.55
1210.72
786.113
-101683
-148710
287150
180449
-160824
-130945
-102184
509523
-219756
-87895.1
15281.7
-29376.6
-16261.3
25256.6
3045.21
6140.35
-2575.87
-12073.8
-663.231
3958.06
-15175.8
14894.1
-5486.82
3455.08
-16898.9
1561.66
11507.1
3852.65
-3934.63
-2434.39
5416.05
-87.5732
-603.494
238.369
-240.274
450.693
327.843
-15.5938
159.473
269.679
598.591
232.402
-53925.5
70416.7
82471.1
-138935
-185785
-1696.16
524730
-247254
-234313
40957.3
135983
-72550.2
19844.5
22879.3
3603.99
989.812
-5023.28
-11387.6
-6129.52
255.84
-16137.8
29969.9
-4209.36
-6300.96
-14667.7
14441
9965.62
-1948.75
-7132.25
-540.218
3427.91
-2315.55
-2209.87
41.0354
58.4401
498.058
-134.502
-937.314
-371.853
-223.794
119.721
-74.1384
231530
-119830
-177413
-74075.6
-32411.5
-25285.6
258301
-164443
-71247.9
49239.5
-4790.22