/*--------------------------------*- C++ -*----------------------------------*\
| =========                 |                                                 |
| \\      /  F ield         | OpenFOAM: The Open Source CFD Toolbox           |
|  \\    /   O peration     | Version:  2406                                  |
|   \\  /    A nd           | Website:  www.openfoam.com                      |
|    \\/     M anipulation  |                                                 |
\*---------------------------------------------------------------------------*/
FoamFile
{
    version     2.0;
    format      ascii;
    arch        "LSB;label=32;scalar=64";
    class       volScalarField;
    location    "0.109";
    object      ddt0(rho,e);
}
// * * * * * * * * * * * * * * * * * * * * * * * * * * * * * * * * * * * * * //

dimensions      [1 -1 -3 0 0 0 0];

internalField   nonuniform List<scalar> 
8988
(
5202.5
-20214.6
-4007.66
35968.3
-1345.93
-9722.57
-26186.7
-6891.87
26192.4
-5304.66
-6665.19
-161.897
3438.59
2085.99
-1889.74
-3534.03
-3319.65
-2931.65
-2763.03
-2351.47
-1846.23
-1580.45
-1404.29
-1239.45
-1052.03
-928.475
-903.643
-1013.46
-1055.38
-838.369
-549.674
-395.54
-309.905
-151.532
88.2881
340.923
596.944
910.389
1359.61
1914.54
2722.61
3507.53
-6230.05
-12902.1
-58706.2
66032
41600.6
-109541
-25825.1
63027.5
11455.9
-40664.7
-23936.4
6198.74
-2304.58
-8658.56
-7575.54
-4546.76
-5009.88
-5147.61
-4718.24
-4813.59
-4378.25
-3979.96
-3870.93
-3752.14
-3448.89
-2767
-2492.74
-2537.65
-2456.24
-1572.73
-334.525
201.724
464.287
937.434
1539.28
2072.36
2562.62
3216.21
4038.78
4812.86
5121.94
5641.86
112669
-50409.5
-155568
-45849.2
162792
-99211.1
-23581.6
-48801.6
47419
43199.6
-40831.6
-35915.7
-5969.88
-6776.23
-11500.9
-10036.6
-8084.84
-8808.34
-8760.51
-8254.66
-7853.99
-7429.28
-7284.99
-7210.56
-6760.28
-5610.49
-4192.53
-3255.54
-2848.48
-1859.86
-701.207
164.202
920.745
1803.13
2939.41
3976.62
4829.13
5521.12
6028.35
6402.54
6471.24
7075.7
102067
-56615.7
-116919
-35315.5
14975.8
3940.38
85188.6
-148454
-9324.06
74581.2
-5659.31
-60509.2
-22235.7
7734.48
-14594.6
-16622.9
-10821.7
-10571.2
-10853.7
-9783.73
-9434.46
-9337.3
-9033.13
-8420.33
-7455.37
-6195.06
-4951.41
-3891.27
-2778.1
-1569.07
-477.486
563.96
1813.42
3128.96
4393.05
5435.39
6150.66
6546.07
6785.82
7056.75
7514.68
7838.16
12423.6
-24429.3
31566.7
-30224.2
-96413
-1846.8
50508.1
-20529
-41263.8
-3163.17
2672.6
-20689.7
-13674.7
-12060.3
-12955.4
-12390.4
-11745.5
-11894.9
-10770.4
-9742.7
-9597.48
-9733.22
-9442.87
-8164.23
-6834.26
-6048.79
-5383.82
-4233.21
-2223.05
-580.724
571.61
1850.24
3217.79
4420.92
5451.06
6368.44
6933.4
7076.82
6941.59
6721.05
6955.3
7767.83
-68510.7
12426
42348.2
32734.3
11688.6
-115735
-21649
86542.2
15506.1
-64779.5
-19950.6
10801.8
-15215.8
-11184.2
-9085.75
-9727.31
-10872.5
-11087.4
-9934.28
-8334.3
-8177.95
-9119.79
-8853.11
-6462.01
-4616.31
-4505.84
-4746.49
-3798.88
-1916.2
-522.097
501.741
1649.54
2854.89
3957.28
4913.67
5772.3
6168.11
6568.06
6522
6313.41
6359.03
6882.09
-36085.7
17323.5
-33864.2
-4794.87
95796.9
38303.7
-118707
-11547.9
49679.6
-5546.24
-18616.8
4552.27
-4947.48
-3808.66
-1719.62
1401.72
-326.844
-5905.2
-8122.94
-5023.79
-3578.62
-4880.69
-5763.19
-4264.11
-3014.35
-3430.98
-4049.65
-3431.03
-2494.31
-1995.82
-1498.91
-639.701
333.947
1263.19
2178.51
3126.24
4071.8
4928.83
5250.42
5111.04
5134.65
5539.59
55817.8
-10720.8
2227.7
-44588.4
-35322.5
77948.6
41670.2
-54232.7
-15127.1
21959.3
2270.48
7414.63
-1710.43
3808.91
4658.38
10425.2
6609.22
-2854.42
-5156.77
-756.462
270.472
-1197.08
-2090.14
-1214.06
-894.291
-1846.74
-2581.23
-2332.06
-2277.78
-2718.22
-3022.73
-2890.89
-2575.81
-2051.94
-1268.93
-299.081
908.395
2239.26
3235.51
3398.24
3012.87
2799.15
-43183.4
18865.4
64604
41154.6
-36897.3
-46385.3
40412.2
53564.6
-15866.4
-15189.9
16279.1
13599.2
-487.094
-29.1121
2997.22
2500.06
3706.15
4132.68
2713.41
4252.76
4533.86
5164.66
3693.92
2152.87
1056.69
28.0771
-525.427
-1045.86
-1959.7
-3094.47
-4002.72
-4622.05
-5037.36
-5061.16
-4633.5
-3806.78
-2717.13
-1563.95
-641.672
-169.013
-87.2032
-244.949
97270.3
-13616.1
-58305.6
-23210.2
58398.1
69009.8
-30068.8
-17855.4
21860.9
19020.9
12851.1
12372.8
11878.3
16092.4
12771
11139.6
13730
16580.6
16153.5
10468.4
8656
10418.6
10044.9
7873.64
5606.47
4232.35
3053.2
1310.57
-781.402
-2649.26
-4049.62
-5202.57
-6205.4
-6908.97
-7228.95
-7157.85
-6861.84
-6507.35
-6032.76
-5323.37
-4534.68
-3922.89
-2178.37
246.058
80278.4
30888.7
-89521.1
-19223.8
110876
36006.9
-18886
-3313.54
38518.2
18308.2
11142.9
17376.4
18750.1
15640
16124.5
17232
16893.7
13823.5
13683.9
15366.5
14198.6
11800.6
10894.1
10140.1
8344.48
5795.68
3041.47
486.19
-1726.84
-3732.62
-5657.16
-7471.54
-9052.8
-10313.1
-11282
-11958.5
-12182.2
-11882
-11253.1
-10822.9
-30781.6
31405
9239.66
89395.6
77513.7
-68531.3
-25539.1
59771.8
57105.2
2933.85
20057.2
31059
14459.4
20229.6
22608.2
16048.8
18619.7
20148.9
18202.5
15630.1
16177.1
18529.6
16796.9
14182.7
14107.3
14184.8
12854.9
10869.1
8764.21
6451.38
3780.76
678.078
-2816.13
-6439.59
-9723.38
-12347.4
-14349.1
-15853.6
-16861.2
-17201
-16963.3
-16693.5
161266
-18195.7
-103556
-24783.7
81025.3
95343
-19788.5
-22376.2
33025.1
53015
19254.1
27951.3
12990
25011.6
31773
16248.8
18585.3
21505.7
19651.1
18874.1
18186.5
20012.1
18805.7
16404.5
16032.5
15755.9
14882.5
13955.2
12979.7
11609.8
9502.27
6381.67
2172.67
-2814.33
-7885.68
-12346.3
-15784.2
-18611
-20290.2
-21293
-21993.2
-22289.6
24737.8
8442.27
86145.3
-58027.1
-59327.8
92534
89893.9
-9510.97
-16555
46830.6
39115.4
28997.9
9123.18
24025.6
34981
18550.1
20046.4
22874.4
20352
20050
20568
20960.6
19985.4
18890
17947.6
16873.9
16033
15155.2
14056.3
12791.3
11193.2
9028.04
6078.61
2142.45
-2822.66
-8644.27
-14652.2
-19780.5
-23841
-26349.4
-27779
-28723.2
-74589.8
35272.2
131829
58849.1
-70218.4
-45285.8
86251.7
79825.9
-9790.95
11274
43584.7
34435.1
14353.1
27026.4
29697.4
18019.3
21554.2
23723.1
20423.8
21117.7
21383
21016.3
21154.4
20319.7
18410.6
17228.7
16695.1
15442.9
13588.1
11526.6
9999.78
8502.02
6305.74
3891.5
461.65
-3744.9
-9990.97
-16705.6
-24009.6
-29356
-32455.3
-34004.1
-1166.65
28254.4
3643.68
60343.7
76683.6
-29417.1
-15987.3
60521.6
39299.6
5510.36
30630.8
23711.8
24113.5
34741.4
18402.6
17708
25440.4
23554.6
20280.7
20131.3
20990
21628.6
20550.5
19225.7
17844.6
16670.8
15798.3
14444.1
12320.6
10082.1
8165.79
6510.64
4764.94
2917.95
853.207
-1948.38
-6353.92
-13142
-20622
-27399.8
-33420.5
-37688.7
53500.2
-7339.62
8352.32
-29559
-3556.88
92400.1
24146.8
-13611.6
20473.2
36606.5
20755.6
8608.85
30801
30585.2
13233.8
22945.1
27014.7
19363.6
19682.1
19861
18663.5
19656.6
19932.4
17930
16091.9
15159
13928.3
12140.9
10049.9
8092.24
6300.21
4473.51
2583.93
768.28
-1080.24
-3375.94
-6419.85
-10445.7
-16304.7
-22868
-27878.1
-32462.4
-66268
35619.2
127720
39783.1
-93289.1
-39165.7
79075.4
59154.6
-17402
19115.9
24801.5
15973.9
27243.7
17376.5
15484.1
26448.9
20344.2
12058.2
16958.4
20630.4
16996.3
16472.3
16704.8
15370.9
13918.7
12585.3
11101.2
9558.18
7887.5
6234.78
4493.85
2424.23
187.174
-1895.68
-3864.4
-6009.99
-8388.16
-10828.4
-13616.5
-17008.7
-20234.3
-23805.6
6433.61
23805.3
-3931.43
20353.7
47417.5
4980.41
-1941.31
26174.3
18784.3
11705.4
19391.2
16997.6
20613.4
17391.4
11268.5
19134.9
17883.8
9104.83
12725.1
17781
15744.3
13375.8
13012.6
12456.4
10785.3
9318.71
7921.22
6731.18
5575.86
4183.09
2397.05
201.856
-2116.37
-4265.9
-6203.43
-7981.74
-9592.15
-10961.2
-11785.6
-12313.7
-13387.9
-13022.4
53538.9
8176.78
-23008.3
-64665.7
-1033.96
107530
12419.6
-34212.4
19947.9
24674.9
9497.21
9512.8
13715.4
16710.3
9781.45
10753.7
12630.5
9334.78
9961.35
12302
11916
10503.2
9654.99
8608.83
7201.63
6047.99
5025.81
4003.69
2851.64
1490.9
-180.623
-2116.81
-4053.17
-5843.14
-7446.84
-8734.95
-9573.34
-9861.33
-9213.96
-7352.38
-3986.06
-3456.95
-9659.08
32107.3
67904.7
2882.96
-107064
8372.67
81602.8
-14512.3
-14619.3
18552.5
9666.51
5607.55
8093.61
9548.83
10094.8
6435.22
4429
7794.09
8372.52
5341.38
4632.77
6717.29
6557.66
4458.26
3229.94
2669.46
2430.6
1425.89
-317.544
-1733.12
-2803.53
-3987.1
-5236.79
-6414.17
-7460.17
-8099.83
-7972.71
-6877.13
-4595.06
-1163.3
3515
5225.24
113333
-41855.7
-113273
-22967.1
97628.6
58732.5
-70281.2
-35771.5
26184.9
21959.6
-12661.9
3645.34
6090.84
667.919
5157.23
1575.43
-3171.84
1943.01
4204.75
584.105
-410.29
2301.39
2269.52
-26.8448
-936.51
-1117.9
-1063.73
-1951.81
-3346.81
-4014.46
-4460.88
-5204.06
-5807.41
-6049.72
-6026.78
-5474.98
-4009.01
-1626.82
1574.73
5033.54
8168.43
10245.7
7383.18
-8674.48
30732.9
-37951
-60009.2
37435.1
19646.3
-37689.3
-7829.26
7275.47
-8951.76
-168.805
-885.796
-3284.44
350.878
-5103.29
-9572.09
-4747.27
-1716.01
-4303.83
-6276.65
-4171.1
-2688.12
-3862.81
-4587.77
-4798.32
-5069.35
-5801.2
-6100.71
-5504.41
-5106.43
-5195.07
-4986.33
-4138.31
-2711.75
-687.291
1817.76
4468.07
7154.1
9634.24
11130.7
12029.6
12832.5
23832.4
27114.8
-43958.4
-113469
26884.9
79282.5
-31561.8
-54302.1
10162.6
-2593.03
-17861.7
-10784.5
-4049.39
-9299.49
-13157.1
-11759.1
-10243.8
-9098.67
-8019.36
-8572.79
-10360.7
-9908.02
-8617.78
-8814.28
-8825.49
-8434.66
-8002.96
-7266.58
-6056.51
-4802.95
-3630.86
-2158.79
-199.324
2175.42
4689.45
6990.83
8910.71
10540.7
12025.8
13133.5
13253.8
104744
-73238.4
-15720.1
-132447
-30663.4
127446
64815.4
-98636.4
-54030.1
33958.3
-22921.1
-30342.7
-12207.3
-9253.64
-21933.6
-21955
-15482.7
-14334.8
-15513
-14782.5
-14245.8
-14570.5
-13064.9
-11463
-11607.4
-11553.9
-10656.8
-8906.24
-6903.27
-4944.8
-2947.46
-861.204
1459.91
3958.04
6354.51
8399.09
10042.1
11355.9
12448.6
13448.8
14373.6
14578.5
-56055.7
7119.11
26516.6
2512.11
-9424.26
-65236.9
-17289.8
3646.08
-31256.2
-26586.6
-16503.9
-26732
-17674.7
-14666.8
-25422.3
-23490.4
-18145.2
-19270.5
-19879.4
-18484.8
-18216.1
-18210.7
-16025.9
-13448.3
-12585.2
-12158.4
-11045.5
-8821.56
-5874.71
-3157.69
-767.62
1559.03
4038.14
6485.95
8556.42
10223.1
11662.9
12871.7
13805.5
14544.6
15232.8
15531.1
-98772.4
-24265.6
17959.9
74131.6
62655.1
-188599
-50309.6
48441.1
-18354.6
-47678.1
-19987
-28373.9
-24426.8
-21951.8
-26264.8
-24466.5
-22944.4
-22007.5
-19780.3
-19166.9
-20172.1
-19568.8
-16763.7
-14773
-14751.7
-11817.5
-8571.03
-7585.85
-5356.94
-2713.81
-195.105
2390.57
4991.86
7334.21
9221.89
10801.6
12304.9
13663.1
14689.5
15306.5
15831.3
16125.6
12442.7
-31491.4
-44021
-41077
12139.4
-3529.15
-27977.9
-61839.5
-16421.3
-9591.84
-33041.7
-26611.5
-21243
-25154.8
-24608.9
-23910
-24026.9
-21405
-19669.7
-20041.2
-19868.4
-18068.6
-16327
-15553.5
-13819.3
-11426.6
-9495.67
-6391.62
-4145.42
-2947.63
-635.583
2061.41
4551.42
6541.66
8422.07
10363
12125.6
13692.7
14898.9
15624
16177.9
16389.1
-77542.9
20117.3
67425.3
-37945.7
-52374
-50247.8
6153.17
24412.5
-41112.9
-40132.6
-11447.3
-20875.1
-25696.3
-23979.9
-22908.8
-23519
-22152.5
-19330.4
-18545.8
-18975.3
-17916.6
-15449.1
-14120.7
-14175
-13434.9
-11134.8
-8355.23
-6596.29
-5569.34
-3699.32
-1083.14
1231.92
3179.23
5000.65
6893.94
8994.75
11086
12826.4
14152.9
15282.2
16192.2
16384.5
66139
-35366.6
34700.1
-135859
-44405.8
81291.4
19633
-58439.1
-35199.4
1461.82
-20712.4
-22783.3
-19666.6
-20335.7
-19857.7
-19459.6
-18197.5
-16165.2
-15272
-15115.1
-13940.9
-13013.1
-12934.1
-12978.8
-12411.5
-10394.9
-8419.7
-7241.12
-6003.74
-4174.77
-2183.74
-226.375
1682.61
3388.44
5024.83
7080.09
9378.06
11305.7
12782.8
14058.9
15327.7
15759.4
48988.8
-27766.3
-155920
-16513.6
162951
83174.2
-193871
-57835.7
67940.5
115.019
-32506.3
-13198.3
-14752.8
-11175.5
-10647.4
-16431.5
-13825.8
-10871.1
-12436.9
-12403
-10275.2
-9700.85
-10948.9
-11865.3
-10203.6
-8429.24
-8020.74
-7393.77
-5769.93
-4307.52
-3263.21
-1861.3
-25.0177
1693.03
3266.23
5166.05
7231.9
8958.63
10458.2
12012.9
13729.2
14346.9
20600.4
-18139.9
-115191
68150.8
132223
40027.3
-210659
-12128.4
107271
-30295.8
-27126
5733.9
-13478.4
-6091.06
-3951.63
-13128.6
-6324.99
-5225.98
-11035.4
-8459.81
-6741.43
-7581.53
-9688.12
-10669.2
-7296.34
-5832.43
-6721.39
-6421.22
-4755.57
-3857.2
-3579.06
-2709.6
-1248.76
182.166
1567.37
3139.12
4689.88
6095.45
7718.12
9518.51
11160
11898.8
8721.52
19974.3
21501.3
-21675.1
-120000
-1408.02
87911.1
61459.2
-86300.6
-25474.7
33265.7
-8855.29
-10422
2538.48
-4265.3
-7951.68
-798.806
-3672.87
-8607.62
-3657.83
-2733.94
-4606.59
-6402.91
-7041.37
-4765.98
-4318.46
-4972.24
-4403.95
-3390.31
-3202.84
-3203.95
-2602.54
-1715.16
-924.565
-26.1727
1058.03
2107.54
3301.63
4972.25
6635.93
7769.74
8501.14
-63754.9
34232.9
78674.8
-41286.9
-47986.9
-50065.2
61125.4
33147.2
-19108.6
-29101.5
22573.5
-14.4199
-1546.43
3311.72
-2524.17
-1405.6
-1.46172
-2272.52
-2192.9
-1262.29
-1550.23
-1738.11
-1740.69
-1802.12
-2282.49
-2635.65
-2471.07
-2155.32
-2141.21
-2420.44
-2453.26
-2032.99
-1632.64
-1466.08
-1170.15
-626.822
-11.8693
884.333
2197.92
3367.71
4002.53
4689.59
71122
-5006.78
-126298
-14727.6
144802
29142.4
-39689.9
-81377.9
31633.2
53803.5
-16119.2
-2392.18
11155.7
1071.83
2015.41
1841.66
-1500.81
1922.96
3078.91
299.239
-27.3552
625.944
954.925
439.901
-278.989
69.0737
46.3382
-569.354
-869.023
-905.262
-1030.9
-1178.92
-1370.24
-1636.51
-1771.8
-1707.68
-1509.65
-1062.11
-431.103
52.9646
274.705
834.782
37474.8
-17656.4
38762.5
-56256.9
-33547.8
78664.8
43111.2
-22517.6
-31320.6
34288.4
7948.85
-1716.15
7280.66
4741.66
5035.59
848.567
14.5394
5299.36
5422.25
3114.32
3385.96
2965.58
2309.1
1555.89
1304.04
1927.28
1485.38
520.26
241.935
355.643
222.551
-190.414
-739.363
-1314.74
-1805.04
-2192.26
-2469.96
-2605.26
-2744.77
-2940.87
-3058.43
-2698.54
-124963
19843.4
70632.4
130573
35716.4
-130171
-73354.2
83042.8
61592.6
-22888.8
-12390.7
15200.8
4307.2
2549.34
8059.17
3253.11
3895.69
7583.61
5116.75
3035.02
4022.5
4079.62
3397.53
3142.02
3414.94
3289.41
2171.1
1361.48
1463.45
1554.1
1141.47
518.606
-95.1026
-753.359
-1520.62
-2364.8
-3161.48
-3850.38
-4569.22
-5254.24
-5697.53
-5685.58
101387
-7177.59
-148697
-29220.6
155047
41250.3
-50552.3
-69128.2
30173.7
59141.6
-20022.4
-2345.11
9447.75
5504.39
5123.04
1385.56
6373.69
7475.78
4275.63
5376.42
5794.48
4068.34
3992.79
4924.01
5114.99
3897.69
2366.92
2409.82
2772.38
2476.03
1897.28
1296.06
578.859
-294.785
-1335.29
-2522.77
-3722.23
-4812.13
-5847.66
-6776.62
-7492.56
-7899.22
42738
-11297.9
58326.6
-126995
-56032.5
121191
59815.8
-59902.9
-41645.8
38756
20479.6
-9037.65
3322.21
10915.4
1351.72
4165.19
9185.77
3054.49
4840.32
8984.38
6442.96
3465.79
5304.31
5891.32
5219.42
4064.81
3336.87
4258.3
3808.97
2851.56
2464.08
1933.55
954.251
-183.955
-1404.9
-2717.77
-4057.93
-5362.47
-6577.55
-7599.01
-8448.01
-9158.97
-86599.4
13862.6
137595
17499.1
-10739.9
-167187
55471.3
115266
-6055.33
-65113.2
16243.6
13746.6
868.057
7091.42
969.949
10325.8
7246.38
638.286
10397.1
10647.3
2377.42
4336.95
8343.1
7213.11
3516.76
3522.35
5283.33
5305.6
3314.2
2999.1
3191.72
2189
762.216
-437.752
-1586.86
-2785.75
-4060.93
-5454.42
-6793.4
-7834.59
-8662.56
-9469.1
-50703.2
-27425.1
-13308.3
131464
6602.41
-22301.1
-103696
25000.4
72904
-7506.02
-27245.4
16857.9
9386.12
996.763
8386.66
10751.6
31.0994
7841.27
12768.7
4581.73
3669.86
8613.49
7898.51
3955.03
4236.85
5548.64
5790.16
3923.05
2546.69
3650.66
3190.15
1611.14
432.705
-559.398
-1666.09
-2765.25
-3910.31
-5206.11
-6574.15
-7551.33
-8184.74
-8923.33
135075
-32467.8
-158669
-30969.5
141276
44746.9
-21735.6
-99076
24601.6
65207.8
-18015.4
-4045.48
16415.7
2831.14
11284.6
6117.7
1096.52
15557.9
10902.2
-2838.36
6222.12
11596.1
5825.84
731.17
5330.33
7787.83
3843.22
2462.52
3814.72
3885.09
1787.64
545.389
155.043
-468.153
-1439.81
-2605.52
-3795.38
-4785.54
-5630.3
-6503.36
-7292.17
-7936.61
10633.3
36863.4
25568.4
10608.8
-192739
15834
133152
57733.9
-63319.9
-14338.4
18763.4
12976.4
9074.25
5364.03
13570.8
2711.88
7757.45
15748.6
4922.77
1813.12
8974.05
8346.71
2373.2
3051.53
6102.77
4593.76
1787.2
3613.12
3974.18
1659.69
989.51
515.65
140.559
-314.848
-1097.65
-2285.12
-3484.18
-4166.57
-4525.45
-5159.86
-5928.28
-6564.55
-33657
100417
46689
9971.72
-217723
-43610.5
213774
109030
-159744
-18163.1
72344.4
10145
-421.441
9925.29
5005.32
4535.37
12439.4
6498.04
149.285
7428.9
9410.55
3807.74
1910.18
4555.58
4655.87
1233.95
1567.21
4019.83
2993.63
857.036
442.387
334.408
255.44
-134.068
-875.433
-1821.6
-2660.92
-3091.2
-3307.26
-3799.64
-4432.95
-5018.99
67378.7
-5333.81
-132885
10960
143432
58087.3
-111468
-24288.2
60749.5
25930.5
-6015.06
7062.83
15265.7
4397.79
4010.33
8883.61
735.334
4625.76
11346
4611.44
-1911.73
3678.12
7661.54
3290.02
-1877.03
200.837
4167.3
2734.09
488.136
447.527
576.14
400.684
35.1894
-298.022
-573.388
-929.525
-1412.3
-1860.9
-2145.49
-2477.95
-2942.92
-3502.82
132927
-25705.6
-161196
-20531.3
158014
52951
-9915.11
-109174
19225.9
73751.6
-8935.04
-4589.58
7747.7
-5580.39
15846.3
13934.6
-15697.5
2816.6
17165.5
5033.95
-12292.1
2509.16
11468.5
2723.97
-6199.71
203.346
5862.05
454.456
-1632.31
158.994
959.463
661.934
13.2296
-433.741
-351.758
-3.61749
-75.4417
-675.284
-1134.12
-1289.85
-1562.99
-2080.03
60161.5
-64050.6
45342.2
-134527
-8982.12
143301
73958.7
-132975
-16764.7
56028.2
-6287.03
869.448
4938.69
-9394.78
17399.6
6039.03
-21490.4
10236.6
15046
-11602.8
-7103.98
7460.96
6573.89
-4098.3
-4705.05
2910.16
3785.98
-2193.1
-2111.86
450.103
662.96
608.018
338.724
-121.179
-54.6898
629.541
898.441
326.625
-178.666
-216.461
-335.239
-702.968
114738
-78081.7
-16350
-120585
-6558.13
188059
68887.8
-183059
-30427.2
74721.8
-228.763
-12585.7
4907.99
23.9996
2212.69
-13293.2
-9894.69
17882.7
9360.35
-21111
-5145.36
8845.13
2516.55
-6987.39
-2861.36
2582.22
-79.6791
-3022.07
-1434.77
254.835
101.76
469.321
609.166
178.472
267.52
1038.09
1404.74
1072.45
778.091
766.407
695.032
575.302
104805
-99653.6
-19356.2
-80217.7
8784.78
123913
38262.1
-117966
-3255.59
41270
-23475.8
-6494.22
797.388
-7720.86
-179.646
-19240.4
-2555.81
13811
-1125.97
-19119.4
-131.016
6833.56
-5132.65
-7496.84
-153.424
1907.61
-2631.13
-2593.79
-639.251
-326.584
-336.961
13.7296
270.486
391.984
882.745
1387.43
1475.27
1490.85
1588.52
1601.58
1558.69
1675.35
8298.24
48402.1
22897.4
-2995.4
-213765
-27974.9
206805
76439.6
-186584
-48551.1
57097
11367.2
-34984.9
2377
6148.72
-25217.7
-2111.25
5055.7
-13428.8
-2290.72
5217.89
-3057.37
-9177.63
-2931.12
1847.81
-1254.14
-3673.73
-2142.9
-688.935
-477.452
-314.117
-320.514
-138.796
500.059
1338.51
1557.12
1501.07
1786.32
2072.4
2144.9
2258.96
2545.16
-45044.1
-33182.2
36801.7
-22249.8
35479.7
-48461.7
21551.5
49261.3
-51734.1
-63295.4
38593.3
4975.51
-28217
3697.74
-5104.55
-10952.6
-28.1791
-6606.77
-7178.61
-784.42
-3526.77
-7760.55
-4221.44
-497.855
-1534.24
-3383.52
-2801.65
-1794.37
-1317.52
-804.722
-533.569
-417.926
-65.9391
699.446
1383.36
1439.85
1596.25
2054.92
2311.8
2444.15
2714.11
3028.21
51385.6
-21619.5
46566.6
-118721
-62703.7
135120
37378
-80335.2
-76418.3
42620
30782.9
-36606.4
-9263.56
-1151.57
-5695.26
1453.88
-8127.29
-12267.8
-2846.83
-1737.21
-6124.05
-4664.9
-1452.68
-1324.44
-2842.34
-3475.48
-3326.93
-2581.32
-1475.75
-944.223
-847.31
-323.583
167.636
542.209
1018.8
1336.85
1780.44
2231.52
2512.75
2702.3
2906.14
3072.68
-135852
77166.9
152959
25021.8
-246845
-36059
149807
41522.4
-103156
-22019.6
39983.9
-17200.6
-10585.5
851.691
-973.987
-5259.55
-2633.97
-2742.59
-9148.92
-7627.2
-687.962
-179.994
-4582.85
-5936.29
-3167.2
-1672.89
-2642.3
-2740.86
-1852.67
-1250.57
-694.618
-51.5968
259.811
403.49
673.057
1089.9
1704.4
2253.98
2544.59
2814.49
2961.52
2979.81
97369.8
-26451.6
-168984
-30017.5
160614
34248.4
-16405.1
-132980
8368.03
58968.8
-6266.46
-6395.96
-2333.11
698.844
-4609.57
-7238.8
-625.983
-2160.5
-5328.06
-460.817
603.411
-4654.52
-7717.54
-4534.6
-521.655
-1276.92
-3540.02
-2525.06
-1083.52
-1022
-1060.27
-480.843
36.3035
199.335
555.083
1097.09
1617.82
2033.07
2380.28
2613.65
2780.31
2918.59
90403.6
-78598.8
38356.4
-172156
-40983.1
192952
38050.3
-72207.3
-86980.1
21767.5
73515.5
-22730.7
109.883
9634.61
-21255.1
1300.74
15484
-892.547
-4145.77
-3089.22
-6592.71
-5955.35
-1690.74
-60.8278
-1492.11
-2829.04
-2514.14
-1565.06
-1527.23
-1657.35
-929.754
-55.4302
104.662
-25.4435
280.554
917.939
1453.9
1806.36
2035.77
2226.71
2453.19
2717.83
-139442
45311.4
156325
1064.25
-4081.68
-152050
48480.5
130252
-53203
-45942.6
23064.1
1862.76
20489.9
5918.27
-13009.8
14722.9
-3515.48
-31594.7
10850.2
18599.6
-12131.6
-11398.3
3975.08
5175.72
-3621.19
-3162.19
-575.538
-616.468
-2376.23
-2467.46
-403.412
356.214
94.354
-128.986
165.88
740.45
1204.04
1477.48
1629.36
1803.42
2031.69
2327.45
169107
-14308.9
-180838
-36922.7
152451
45340.2
-10259.7
-81518.8
25976.7
59456.3
-28302.1
-15038.1
22306.2
-13730.8
60.6656
27449.4
-9120.09
-34359.7
20996
26326.2
-18021.8
-7789.66
7292.45
3446.13
-6678.62
-1454
1924.45
-1593.51
-3137.43
-1590.48
777.692
705.707
-404.432
-426.426
209.217
704.108
962.151
1150.69
1301.65
1413.9
1495.54
1728.4
68585.9
-81352
84366.5
-102795
-27850.3
127987
89812.5
-165856
-13889.7
105343
5273.38
-47342.2
6586.3
11950.3
9431.44
3869.28
-21205.9
1088.46
20711.2
2944.83
-11753.9
1523.68
7237.6
-169.624
-4250.34
716.292
2022.85
-1907.95
-2759.94
-922.288
613.7
63.7583
-555.018
-54.7941
483.486
604.772
672.277
864.872
1015.2
1005.61
862.077
992.626
15322.8
-46969.1
-31787.7
222362
43805.7
-85226.9
-142652
94835.3
81279.9
-43277.8
-12676.4
10510.9
3565.63
10456.4
2082.47
-5730.03
-3008.56
8862.39
8364.41
-3416.79
-4565.06
2746.09
3489.71
-1967
-4011.09
1275.98
2592.81
-1187.65
-2116.42
-494.41
790.193
-335.164
-812.316
353.138
843.474
575.026
492.76
651.309
677.796
482.098
139.539
196.101
-74405.7
-46821.1
-9748.51
252294
12749.3
-79697.8
-195872
99842.6
182108
-91561.7
-80137
45624.3
30172.1
-6496.49
-11752.7
8497.16
12514.7
-13191.5
-1683.99
9692.71
-379.462
-3101.08
2015.34
2034.65
-1521.1
1303.88
2251.68
-1042.9
-1706.75
215.971
601.448
-1028
-587.395
931.889
999.692
434.727
352.818
435.548
270.073
-109.009
-607.452
-611.127
50660.5
-42151.4
16064.8
-181081
-1407.07
173234
58238.6
-94194.8
-4977.9
8615.64
-9303.36
22705
7655.86
-869.214
-10477.3
17260.9
7416.46
-26241.4
5035.64
16318.5
-6304.78
-3202.73
5962.26
4176.04
-1664.09
39.1605
1317.98
-461.216
-690.284
170.676
16.3462
-444.933
327.46
879.836
512.015
218.068
296.877
232.714
-109.418
-624.469
-1267.76
-1322.22
14836
80462.7
30175.9
-28561.2
-204879
23495.8
187929
54436.7
-185023
-9889.22
111654
-12023.8
-30766.5
-599.967
-2423.78
24280.3
-9595.8
-26923.6
22564.9
25685.5
-24191.7
-3530.05
12844
5142.4
-6218.64
-950.625
3705.07
786.993
-464.253
-338.217
-101.306
698.587
1195.01
504.569
-255.474
8.30669
241.891
25.3209
-418.497
-1052.78
-1833.58
-1916.12
-91073.6
56846.3
184314
-3324.44
-163682
-134000
98167.6
157680
-70261.9
-90494.7
35297.7
12731.9
3045.18
-14894.9
7180.44
24221.6
-38484.4
-11343.3
39049.3
24218.6
-41382.7
-1337.27
22251
9850.63
-16445
-2850.52
10203.3
2044.36
-2196.48
-684.583
1227.48
1047.44
879.366
131.946
-361.781
53.9213
274.144
-120.659
-940.245
-1474.41
-2228.09
-2277.16
233951
25930.3
-359592
-70386.3
308653
103559
-204111
-77577.2
131170
18260.4
-63496
7238.56
13903.5
-19806.4
3698.3
21217.1
-21380.1
4319.09
17067.1
-13325.9
-13436.4
17595.9
12582.4
-15129.9
-9933.31
10701.2
9936.15
-1978.75
-1534.01
1044.41
789.274
634.362
536.379
26.8713
-43.0928
61.7854
43.2778
-355.628
-1079.34
-1736.22
-2413.11
-2458
-61688.2
-24757.2
-83010.7
81575.5
235795
45015.2
-299306
-109790
204646
83152.5
-82696
-59662.1
50323.4
-11675.1
-8588.69
-863.129
-4058
16877.9
-804.951
-29327.8
10585.1
18659.3
-6134.86
-13819.4
5181.8
10751.2
-1084.03
-2770.76
1119.93
1354.12
-24.3545
379.674
368.562
96.1461
102.178
246.622
98.7659
-663.893
-1360.9
-1746.17
-2386.66
-2508.32
-45110.9
-27227.7
40373
243719
12069.7
-202077
-170995
182738
143192
-137951
-87230.8
57516.4
15731.7
-4386.21
-2404.47
-20480
18143.6
11711.1
-36007.5
-1187.72
21962.9
6191.26
-17169.4
1661.03
11617.8
37.4339
-4960.23
718.056
2671.45
-935.27
-280.541
924.52
227.295
-55.6088
-88.7252
14.2998
-190.179
-779.24
-1172.17
-1560.17
-2235.39
-2475.14
-68909.7
-63246.3
-99100.7
296091
159383
-273179
-228270
253575
88682.3
-148722
-42534.3
70000.5
-18845.1
1448.43
-12477.5
-9089.33
18857.3
-7228.47
-10833.7
11505.8
1983.23
-9108.29
4474.62
8108.52
-1884.79
-5029.52
2158.95
4012.08
-945.324
-1197.18
410.988
43.7431
-384.782
-225.425
-44.2406
-115.34
-497.608
-697.621
-909.451
-1431.82
-1952.01
-2379.9
-139467
31006.7
182456
13700.6
43118.8
-323132
90544.6
255949
-114403
-123540
97553.4
5329.14
-30534.6
6462.72
-8230.56
5547.15
4723.95
-1286.31
5601.04
-7757.96
-10772.5
12742.2
12520.2
-6546.42
-9611.85
3510.7
7456.13
-963.67
-2939.36
693.606
1144.72
-550.36
-525.058
-306.143
-127.225
-275.503
-600.537
-551.622
-734.36
-1315.63
-1505.23
-2177.63
-339773
103284
380248
-40791.8
-208825
-241326
172259
272346
-224480
-60275.3
122952
-24064.1
-28401.3
8501.11
-88.7896
7111.27
-5358.73
5347.39
1697.16
-16218.1
5595.03
15300.8
-851.907
-10029.7
178.632
7014.86
1343.12
-2718.8
94.9223
1143.9
-782.989
-748.183
-84.2617
44.161
-105.8
-427.255
-565.526
-427.667
-710.207
-1213.89
-858.025
-1783.86
-365278
272392
416888
20097.1
-588263
-114900
440387
27647.6
-230199
26944.2
100647
-65447.2
-11638.1
23821.1
-3556.42
-7015.61
9978.24
7539.38
-17042.2
-703.987
17178.9
2626.74
-10815.2
-541.716
6714.04
1420
-3152.24
312.952
1908.44
-1690.33
-1626.84
310.891
295.271
62.9596
-289.767
-604.804
-536.982
-402.282
-747.794
-1035.48
-18.353
-1151.77
-98441.8
200604
182093
-201472
-369956
141755
312470
-155645
-158131
150034
19546.1
-87227.8
23290.1
23589.3
-7236.79
-1000.1
8306.35
-8563.5
-7245.47
15777.2
7518.55
-10586.5
-3827.16
3257.14
105.942
-2692.42
1378.66
2760.09
-1301.5
-1834.34
380.629
426.425
-243.136
-500.361
-721.392
-714.591
-333.152
-233.732
-535.853
-613.986
755.011
-529.54
281477
-215090
-118304
-264389
-14381.1
472358
59339.4
-369249
-16796.5
248503
-34726.8
-86018.6
61263.2
-7834.78
-20551.6
25396.4
14183.2
-30884.6
7720.87
20482.5
-16690.4
-9262.32
7818.37
4409.2
-5445.11
-339.453
5306.71
1333.85
-3188.08
-1084.52
1004.01
73.3088
-434.765
-848.641
-1276.66
-923.939
-230.45
-132.171
-177.773
14.8916
1373.57
13.6476
170583
-41035.7
-450077
-68798.1
561769
180060
-466550
-239348
366757
32850.9
-119961
23546.5
35539.5
-29500.8
14789.5
36889.8
-29341.4
-19102.8
29821.2
5283.2
-26021.5
8330.95
18828.4
-3236.24
-7407.91
2612.28
4801.63
-1420.18
-2435.34
-1146.53
-670.423
-149.593
-185.334
-930.626
-1440.65
-706.326
15.0305
6.22801
107.408
443.537
1696.2
486.682
-42665.7
-88577.1
-177498
411405
240192
-270440
-327316
222275
225727
-195772
-40230.2
125756
-41047
-8098.93
42883.3
-7403.7
-36820.2
26647.3
27896.9
-28024.4
-8949.48
19839.9
11395.8
-5122.73
-8000.84
-4135.65
1740.08
3571.66
-19.2186
-5506.62
-2576.44
1896.92
249.436
-1181.51
-1084.76
-228.762
179.444
244.927
423.122
692.703
1751.27
832.657
-322367
120014
447949
-32139.1
-160349
-386340
170752
439301
-187033
-192295
171380
25059.2
-64984.8
31887.2
25379.7
-32247.1
10606.5
30143.2
-13497.6
-15565.5
3576.13
8039.79
4682.25
-2258.45
-12312.2
-8834.02
6912.3
6886.97
-5092.64
-6636.92
1180.85
3485.29
-518.155
-1361.08
-581.871
24.7183
171.409
490.83
654.875
802.953
1671.82
1113.81
8812.92
189418
120110
-205846
-362731
149893
333145
-115140
-189686
102062
53834.1
-52165.8
-2410.48
18456.3
-5392.49
-4789.34
10227.7
-1186
-7672.35
-4825.91
-296.297
10803
3316.53
-14087.2
-16424.7
3765.35
12501.2
3216.62
-9193.98
-1767.41
6168.31
-27.8647
-2360.34
-698.147
27.7319
-152.616
-50.0643
736.106
989.628
967.462
1488.84
1289.64
390439
-185717
-207575
-411522
29410.3
639216
34083
-400092
-14416.3
218086
-63704.7
-64983.2
51870.7
-5985.65
2296.4
4549.85
-15035.8
8410.06
837.769
-29278.9
3557.01
24587
5282.53
-35583.5
-7920.9
20604.5
9854.32
-13240.6
-6219.88
9117.61
4576.29
-2970.41
-2112.15
-596.057
-155.656
-93.4788
422.598
1105.08
1290.89
1237.29
1163.4
1124.75
190329
-55669.7
-569427
-34391.1
558340
31121.9
-437842
-23331.8
291477
-26875.6
-108492
42645.1
23934.8
2619.65
682.787
-12839.2
15992.5
10347.4
-41007
-13969.3
40117.1
15872.2
-40618.6
-10395.3
23237.5
12227.5
-12550.2
-12641.6
6854.76
8172.45
-2463.72
-3780.49
-1251.54
484.123
-399.543
122.75
890.82
1302.31
1240.93
1224.05
815.006
816.66
-235840
103780
252532
91845.8
-155367
-151374
155716
160595
-194072
-25303.8
113822
-13676.3
-23293.2
27071.6
14384.6
-29770.1
15951
9454.77
-40679.5
16941.1
24582.5
-18294.9
-33533.3
18832.9
21636.8
-2726.17
-19966.1
1245.26
11098.1
-496.132
-6047.91
-4134.8
1064.55
1276.09
218.601
360.418
752.326
1096.29
979.531
887.858
694.813
754.123
-337092
278913
258743
-229880
-302046
135862
344989
-198498
-164967
160916
35096.9
-58223.5
17647.6
10729.1
-26058.1
-17452.4
27464.1
-12675.9
-20304.6
30750.4
13760.8
-42186.2
2203.01
19901
1592.41
-24173.5
-696.329
13978.9
1147.71
-8717.05
-5277.48
1487.82
1781.18
1203.44
792.143
493.145
332.778
230.585
451.955
561.158
949.154
1013.35
420865
-144340
-334645
-18112.6
436020
166881
-370093
-240566
313277
156403
-189283
-63377.8
68185.1
-37116.5
-39735
19992.1
23464.5
-25469.7
8215.92
6234.57
-40211.4
-5606.29
34502.9
14136.7
-40545.1
-12847
22204.3
11333.4
-12403.7
-8906.59
3068.96
3870.07
1119.62
1613.68
1290.25
454.682
-231.751
-544.122
-56.1213
404.689
1366.62
1469.8
-116722
-7423.85
-73421
432957
123764
-385864
-286204
277363
319914
-329835
-102551
133605
8023.53
-53033.9
-11912
37649.1
-12486.6
-15618.2
3536.59
-26154.6
-23704
30390.3
19395
-8797.36
-35994.3
11885
20901.2
259.067
-14513.2
-2158.57
7496.19
732.353
990.367
2168.69
306.509
-756.651
-449.183
195.473
140.081
530.381
1458.07
1562.7
-325670
112141
468518
-26296
-116324
-509282
166091
460998
-130761
-289486
39380.8
169692
-37262.4
-52056.5
9144.83
45673.5
-25872
-16508.9
1563.59
-36149.8
-12532.8
47722.3
16931.3
-29100.9
-19947.9
22207.8
15872.7
-8624.67
-11832.5
1810.51
5548.68
-1483.08
-35.4532
1398.26
-438.919
-990.008
-132.118
1115.73
644.017
875.743
1302.73
1287.55
-500366
319357
400700
-64925.6
-567886
-98414.5
658289
38607.8
-496937
-15383.8
243236
29632.7
-68303.9
-35564.1
34222.3
28008.6
-38524
1032.29
13284
-44681
-10340
55020.6
17710.8
-23184.2
-29656.1
21142.1
18968.5