/*--------------------------------*- C++ -*----------------------------------*\
| =========                 |                                                 |
| \\      /  F ield         | OpenFOAM: The Open Source CFD Toolbox           |
|  \\    /   O peration     | Version:  2406                                  |
|   \\  /    A nd           | Website:  www.openfoam.com                      |
|    \\/     M anipulation  |                                                 |
\*---------------------------------------------------------------------------*/
FoamFile
{
    version     2.0;
    format      ascii;
    arch        "LSB;label=32;scalar=64";
    class       volScalarField;
    location    "0.109";
    object      drdt;
}
// * * * * * * * * * * * * * * * * * * * * * * * * * * * * * * * * * * * * * //

dimensions      [0 1 -1 0 0 0 0];

internalField   nonuniform List<scalar> 
8988
(
0
0
0
0
0
0
0
0
0
0
0
0
0
0
0
0
0
0
0
0
0
0
0
0
0
0
0
0
0
0
0
0
0
0
0
0
0
0
0
0
0
0
0
0
0
0
0
0
0
0
0
0
0
0
0
0
0
0
0
0
0
0
0
0
0
0
0
0
0
0
0
0
0
0
0
0
0
0
0
0
0
0
0
0
0
0
0
0
0
0
0
0
0
0
0
0
0
0
0
0
0
0
0
0
0
0
0
0
0
0
0
0
0
0
0
0
0
0
0
0
0
0
0
0
0
0
0
0
0
0
0
0
0
0
0
0
0
0
0
0
0
0
0
0
0
0
0
0
0
0
0
0
0
0
0
0
0
0
0
0
0
0
0
0
0
0
0
0
0
0
0
0
0
0
0
0
0
0
0
0
0
0
0
0
0
0
0
0
0
0
0
0
0
0
0
0
0
0
0
0
0
0
0
0
0
0
0
0
0
0
0
0
0
0
0
0
0
0
0
0
0
0
0
0
0
0
0
0
0
0
0
0
0
0
0
0
0
0
0
0
0
0
0
0
0
0
0
0
0
0
0
0
0
0
0
0
0
0
0
0
0
0
0
0
0
0
0
0
0
0
0
0
0
0
0
0
0
0
0
0
0
0
0
0
0
0
0
0
0
0
0
0
0
0
0
0
0
0
0
0
0
0
0
0
0
0
0
0
0
0
0
0
0
0
0
0
0
0
0
0
0
0
0
0
0
0
0
0
0
0
0
0
0
0
0
0
0
0
0
0
0
0
0
0
0
0
0
0
0
0
0
0
0
0
0
0
0
0
0
0
0
0
0
0
0
0
0
0
0
0
0
0
0
0
0
0
0
0
0
0
0
0
0
0
0
0
0
0
0
0
0
0
0
0
0
0
0
0
0
0
0
0
0
0
0
0
0
0
0
0
0
0
0
0
0
0
0
0
0
0
0
0
0
0
0
0
0
0
0
0
0
0
0
0
0
0
0
0
0
0
0
0
0
0
0
0
0
0
0
0
0
0
0
0
0
0
0
0
0
0
0
0
0
0
0
0
0
0
0
0
0
0
0
0
0
0
0
0
0
0
0
0
0
0
0
0
0
0
0
0
0
0
0
0
0
0
0
0
0
0
0
0
0
0
0
0
0
0
0
0
0
0
0
0
0
0
0
0
0
0
0
0
0
0
0
0
0
0
0
0
0
0
0
0
0
0
0
0
0
0
0
0
0
0
0
0
0
0
0
0
0
0
0
0
0
0
0
0
0
0
0
0
0
0
0
0
0
0
0
0
0
0
0
0
0
0
0
0
0
0
0
0
0
0
0
0
0
0
0
0
0
0
0
0
0
0
0
0
0
0
0
0
0
0
0
0
0
0
0
0
0
0
0
0
0
0
0
0
0
0
0
0
0
0
0
0
0
0
0
0
0
0
0
0
0
0
0
0
0
0
0
0
0
0
0
0
0
0
0
0
0
0
0
0
0
0
0
0
0
0
0
0
0
0
0
0
0
0
0
0
0
0
0
0
0
0
0
0
0
0
0
0
0
0
0
0
0
0
0
0
0
0
0
0
0
0
0
0
0
0
0
0
0
0
0
0
0
0
0
0
0
0
0
0
0
0
0
0
0
0
0
0
0
0
0
0
0
0
0
0
0
0
0
0
0
0
0
0
0
0
0
0
0
0
0
0
0
0
0
0
0
0
0
0
0
0
0
0
0
0
0
0
0
0
0
0
0
0
0
0
0
0
0
0
0
0
0
0
0
0
0
0
0
0
0
0
0
0
0
0
0
0
0
0
0
0
0
0
0
0
0
0
0
0
0
0
0
0
0
0
0
0
0
0
0
0
0
0
0
0
0
0
0
0
0
0
0
0
0
0
0
0
0
0
0
0
0
0
0
0
0
0
0
0
0
0
0
0
0
0
0
0
0
0
0
0
0
0
0
0
0
0
0
0
0
0
0
0
0
0
0
0
0
0
0
0
0
0
0
0
0
0
0
0
0
0
0
0
0
0
0
0
0
0
0
0
0
0
0
0
0
0
0
0
0
0
0
0
0
0
0
0
0
0
0
0
0
0
0
0
0
0
0
0
0
0
0
0
0
0
0
0
0
0
0
0
0
0
0
0
0
0
0
0
0
0
0
0
0
0
0
0
0
0
0
0
0
0
0
0
0
0
0
0
0
0
0
0
0
0
0
0
0
0
0
0
0
0
0
0
0
0
0
0
0
0
0
0
0
0
0
0
0
0
0
0
0
0
0
0
0
0
0
0
0
0
0
0
0
0
0
0
0
0
0
0
0
0
0
0
0
0
0
0
0
0
0
0
0
0
0
0
0
0
0
0
0
0
0
0
0
0
0
0
0
0
0
0
0
0
0
0
0
0
0
0
0
0
0
0
0
0
0
0
0
0
0
0
0
0
0
0
0
0
0
0
0
0
0
0
0
0
0
0
0
0
0
0
0
0
0
0
0
0
0
0
0
0
0
0
0
0
0
0
0
0
0
0
0
0
0
0
0
0
0
0
0
0
0
0
0
0
0
0
0
0
0
0
0
0
0
0
0
0
0
0
0
0
0
0
0
0
0
0
0
0
0
0
0
0
0
0
0
0
0
0
0
0
0
0
0
0
0
0
0
0
0
0
0
0
0
0
0
0
0
0
0
0
0
0
0
0
0
0
0
0
0
0
0
0
0
0
0
0
0
0
0
0
0
0
0
0
0
0
0
0
0
0
0
0
0
0
0
0
0
0
0
0
0
0
0
0
0
0
0
0
0
0
0
0
0
0
0
0
0
0
0
0
0
0
0
0
0
0
0
0
0
0
0
0
0
0
0
0
0
0
0
0
0
0
0
0
0
0
0
0
0
0
0
0
0
0
0
0
0
0
0
0
0
0
0
0
0
0
0
0
0
0
0
0
0
0
0
0
0
0
0
0
0
0
0
0
0
0
0
0
0
0
0
0
0
0
0
0
0
0
0
0
0
0
0
0
0
0
0
0
0
0
0
0
0
0
0
0
0
0
0
0
0
0
0
0
0
0
0
0
0
0
0
0
0
0
0
0
0
0
0
0
0
0
0
0
0
0
0
0
0
0
0
0
0
0
0
0
0
0
0
0
0
0
0
0
0
0
0
0
0
0
0
0
0
0
0
0
0
0
0
0
0
0
0
0
0
0
0
0
0
0
0
0
0
0
0
0
0
0
0
0
0
0
0
0
0
0
0
0
0
0
0
0
0
0
0
0
0
0
0
0
0
0
0
0
0
0
0
0
0
0
0
0
0
0
0
0
0
0
0
0
0
0
0
0
0
0
0
0
0
0
0
0
0
0
0
0
0
0
0
0
0
0
0
0
0
0
0
0
0
0
0
0
0
0
0
0
0
0
0
0
0
0
0
0
0
0
0
0
0
0
0
0
0
0
0
0
0
0
0
0
0
0
0
0
0
0
0
0
0
0
0
0
0
0
0
0
0
0
0
0
0
0
0
0
0
0
0
0
0
0
0
0
0
0
0
0
0
0
0
0
0
0
0
0
0
0
0
0
0
0
0
0
0
0
0
0
0
0
0
0
0
0
0
0
0
0
0
0
0
0
0
0
0
0
0
0
0
0
0
0
0
0
0
0
0
0
0
0
0
0
0
0
0
0
0
0
0
0
0
0
0
0
0
0
0
0
0
0
0
0
0
0
0
0
0
0
0
0
0
0
0
0
0
0
0
0
0
0
0
0
0
0
0
0
0
0
0
0
0
0
0
0
0
0
0
0
0
0
0
0
0
0
0
0
0
0
0
0
0
0
0
0
0
0
0
0
0
0
0
0
0
0
0
0
0
0
0
0
0
0
0
0
0
0
0
0
0
0
0
0
0
0
0
0
0
0
0
0
0
0
0
0
0
0
0
0
0
0
0
0
0
0
0
0
0
0
0
0
0
0
0
0
0
0
0
0
0
0
0
0
0
0
0
0
0
0
0
0
0
0
0
0
0
0
0
0
0
0
0
0
0
0
0
0
0
0
0
0
0
0
0
0
0
0
0
0
0
0
0
0
0
0
0
0
0
0
0
0
0
0
0
0
0
0
0
0
0
0
0
0
0
0
0
0
0
0
0
0
0
0
0
0
0
0
0
0
0
0
0
0
0
0
0
0
0
0
0
0
0
0
0
0
0
0
0
0
0
0
0
0
0
0
0
0
0
0
0
0
0
0
0
0
0
0
0
0
0
0
0
0
0
0
0
0
0
0
0
0
0
0
0
0
0
0
0
0
0
0
0
0
0
0
0
0
0
0
0
0
0
0
0
0
0
0
0
0
0
0
0
0
0
0
0
0
0
0
0
0
0
0
0
0
0
0
0
0
0
0
0
0
0
0
0
0
0
0
0
0
0
0
0
0
0
0
0
0
0
0
0
0
0
0
0
0
0
0
0
0
0
0
0
0
0
0
0
0
0
0
0
0
0
0
0
0
0
0
0
0
0
0
0
0
0
0
0
0
0
0
0
0
0
0
0
0
0
0
0
0
0
0
0
0
0
0
0
0
0
0
0
0
0
0
0
0
0
0
0
0
0
0
0
0
0
0
0
0
0
0
0
0
0
0
0
0
0
0
0
0
0
0
0
0
0
0
0
0
0
0
0
0
0
0
0
0
0
0
0
0
0
0
0
0
0
0
0
0
0
0
0
0
0
0
0
0
0
0
0
0
0
0
0
0
0
0
0
0
0
0
0
0
0
0
0
0
0
0
0
0
0
0
0
0
0
0
0
0
0
0
0
0
0
0
0
0
0
0
0
0
0
0
0
0
0
0
0
0
0
0
0
0
0
0
0
0
0
0
0
0
0
0
0
0
0
0
0
0
0
0
0
0
0
0
0
0
0
0
0
0
0
0
0
0
0
0
0
0
0
0
0
0
0
0
0
0
0
0
0
0
0
0
0
0
0
0
0
0
0
0
0
0
0
0
0
0
0
0
0
0
0
0
0
0
0
0
0
0
0
0
0
0
0
0
0
0
0
0
0
0
0
0
0
0
0
0
0
0
0
0
0
0
0
0
0
0
0
0
0
0
0
0
0
0
0
0
0
0
0
0
0
0
0
0
0
0
0
0
0
0
0
0
0
0
0
0
0
0
0
0
0
0
0
0
0
0
0
0
0
0
0
0
0
0
0
0
0
0
0
0
0
0
0
0
0
0
0
0
0
0
0
0
0
0
0
0
0
0
0
0
0
0
0
0
0
0
0
0
0
0
0
0
0
0
0
0
0
0
0
0
0
0
0
0
0
0
0
0
0
0
0
0
0
0
0
0
0
0
0
0
0
0
0
0
0
0
0
0
0
0
0
0
0
0
0
0
0
0
0
0
0
0
0
0
0
0
0
0
0
0
0
0
0
0
0
0
0
0
0
0
0
0
0
0
0
0
0
0
0
0
0
0
0
0
0
0
0
0
0
0
0
0
0
0
0
0
0
0
0
0
0
0
0
0
0
0
0
0
0
0
0
0
0
0
0
0
0
0
0
0
0
0
0
0
0
0
0
0
0
0
0
0
0
0
0
0
0
0
0
0
0
0
0
0
0
0
0
0
0
0
0
0
0
0
0
0
0
0
0
0
0
0
0
0
0
0
0
0
0
0
0
0
0
0
0
0
0
0
0
0
0
0
0
0
0
0
0
0
0
0
0
0
0
0
0
0
0
0
0
0
0
0
0
0
0
0
0
0
0
0
0
0
0
0
0
0
0
0
0
0
0
0
0
0
0
0
0
0
0
0
0
0
0
0
0
0
0
0
0
0
0
0
0
0
0
0
0
0
0
0
0
0
0
0
0
0
0
0
0
0
0
0
0
0
0
0
0
0
0
0
0
0
0
0
0
0
0
0
0
0
0
0
0
0
0
0
0
0
0
0
0
0
0
0
0
0
0
0
0
0
0
0
0
0
0
0
0
0
0
0
0
0
0
0
0
0
0
0
0
0
0
0
0
0
0
0
0
0
0
0
0
0
0
0
0
0
0
0
0
0
0
0
0
0
0
0
0
0
0
0
0
0
0
0
0
0
0
0
0
0
0
0
0
0
0
0
0
0
0
0
0
0
0
0
0
0
0
0
0
0
0
0
0
0
0
0
0
0
0
0
0
0
0
0
0
0
0
0
0
0
0
0
0
0
0
0
0
0
0
0
0
0
0
0
0
0
0
0
0
0
0
0
0
0
0
0
0
0
0
0
0
0
0
0
0
0
0
0
0
0
0
0
0
0
0
0
0
0
0
0
0
0
0
0
0
0
0
0
0
0
0
0
0
0
0
0
0
0
0
0
0
0
0
0
0
0
0
0
0
0
0
0
0
0
0
0
0
0
0
0
0
0
0
0
0
0
0
0
0
0
0
0
0
0
0
0
0
0
0
0
0
0
0
0
0
0
0
0
0
0
0
0
0
0
0
0
0
0
0
0
0
0
0
0
0
0
0
0
0
0
0
0
0
0
0
0
0
0
0
0
0
0
0
0
0
0
0
0
0
0
0
0
0
0
0
0
0
0
0
0
0
0
0
0
0
0
0
0
0
0
0
0
0
0
0
0
0
0
0
0
0
0
0
0
0
0
0
0
0
0
0
0
0
0
0
0
0
0
0
0
0
0
0
0
0
0
0
0
0
0
0
0
0
0
0
0
0
0
0
0
0
0
0
0
0
0
0
0
0
0
0
0
0
0
0
0
0
0
0
0
0
0
0
0
0
0
0
0
0
0
0
0
0
0
0
0
0
0
0
0
0
0
0
0
0
0
0
0
0
0
0
0
0
0
0
0
0
0
0
0
0
0
0
0
0
0
0
0
0
0
0
0
0
0
0
0
0
0
0
0
0
0
0
0
0
0
0
0
0
0
0
0
0
0
0
0
0
0
0
0
0
0
0
0
0
0
0
0
0
0
0
0
0
0
0
0
0
0
0
0
0
0
0
0
0
0
0
0
0
0
0
0
0
0
0
0
0
0
0
0
0
0
0
0
0
0
0
0
0
0
0
0
0
0
0
0
0
0
0
0
0
0
0
0
0
0
0
0
0
0
0
0
0
0
0
0
0
0
0
0
0
0
0
0
0
0
0
0
0
0
0
0
0
0
0
0
0
0
0
0
0
0
0
0
0
0
0
0
0
0
0
0
0
0
0
0
0
0
0
0
0
0
0
0
0
0
0
0
0
0
0
0
0
0
0
0
0
0
0
0
0
0
0
0
0
0
0
0
0
0
0
0
0
0
0
0
0
0
0
0
0
0
0
0
0
0
0
0
0
0
0
0
0
0
0
0
0
0
0
0
0
0
0
0
0
0
0
0
0
0
0
0
0
0
0
0
0
0
0
0
0
0
0
0
0
0
0
0
0
0
0
0
0
0
0
0
0
0
0
0
0
0
0
0
0
0
0
0
0
0
0
0
0
0
0
0
0
0
0
0
0
0
0
0
0
0
0
0
0
0
0
0
0
0
0
0
0
0
0
0
0
0
0
0
0
0
0
0
0
0
0
0
0
0
0
0
0
0
0
0
0
0
0
0
0
0
0
0
0
0
0
0
0
0
0
0
0
0
0
0
0
0
0
0
0
0
0
0
0
0
0
0
0
0
0
0
0
0
0
0
0
0
0
0
0
0
0
0
0
0
0
0
0
0
0
0
0
0
0
0
0
0
0
0
0
0
0
0
0
0
0
0
0
0
0
0
0
0
0
0
0
0
0
0
0
0
0
0
0
0
0
0
0
0
0
0
0
0
0
0
0
0
0
0
0
0
0
0
0
0
0
0
0
0
0
0
0
0
0
0
0
0
0
0
0
0
0
0
0
0
0
0
0
0
0
0
0
0
0
0
0
0
0
0
0
0
0
0
0
0
0
0
0
0
0
0
0
0
0
0
0
0
0
0
0
0
0
0
0
0
0
0
0
0
0
0
0
0
0
0
0
0
0
0
0
0
0
0
0
0
0
0
0
0
0
0
0
0
0
0
0
0
0
0
0
0
0
0
0
0
0
0
0
0
0
0
0
0
0
0
0
0
0
0
0
0
0
0
0
0
0
0
0
0
0
0
0
0
0
0
0
0
0
0
0
0
0
0
0
0
0
0
0
0
0
0
0
0
0
0
0
0
0
0
0
0
0
0
0
0
0
0
0
0
0
0
0
0
0
0
0
0
0
0
0
0
0
0
0
0
0
0
0
0
0
0
0
0
0
0
0
0
0
0
0
0
0
0
0
0
0
0
0
0
0
0
0
0
0
0
0
0
0
0
0
0
0
0
0
0
0
0
0
0
0
0
0
0
0
0
0
0
0
0
0
0
0
0
0
0
0
0
0
0
0
0
0
0
0
0
0
0
0
0
0
0
0
0
0
0
0
0
0
0
0
0
0
0
0
0
0
0
0
0
0
0
0
0
0
0
0
0
0
0
0
0
0
0
0
0
0
0
0
0
0
0
0
0
0
0
0
0
0
0
0
0
0
0
0
0
0
0
0
0
0
0
0
0
0
0
0
0
0
0
0
0
0
0
0
0
0
0
0
0
0
0
0
0
0
0
0
0
0
0
0
0
0
0
0
0
0
0
0
0
0
0
0
0
0
0
0
0
0
0
0
0
0
0
0
0
0
0
0
0
0
0
0
0
0
0
0
0
0
0
0
0
0
0
0
0
0
0
0
0
0
0
0
0
0
0
0
0
0
0
0
0
0
0
0
0
0
0
0
0
0
0
0
0
0
0
0
0
0
0
0
0
0
0
0
0
0
0
0
0
0
0
0
0
0
0
0
0
0
0
0
0
0
0
0
0
0
0
0
0
0
0
0
0
0
0
0
0
0
0
0
0
0
0
0
0
0
0
0
0
0
0
0
0
0
0
0
0
0
0
0
0
0
0
0
0
0
0
0
0
0
0
0
0
0
0
0
0
0
0
0
0
0
0
0
0
0
0
0
0
0
0
0
0
0
0
0
0
0
0
0
0
0
0
0
0
0
0
0
0
0
0
0
0
0
0
0
0
0
0
0
0
0
0
0
0
0
0
0
0
0
0
0
0
0
0
0
0
0
0
0
0
0
0
0
0
0
0
0
0
0
0
0
0
0
0
0
0
0
0
0
0
0
0
0
0
0
0
0
0
0
0
0
0
0
0
0
0
0
0
0
0
0
0
0
0
0
0
0
0
0
0
0
0
0
0
0
0
0
0
0
0
0
0
0
0
0
0
0
0
0
0
0
0
0
0
0
0
0
0
0
0
0
0
0
0
0
0
0
0
0
0
0
0
0
0
0
0
0
0
0
0
0
0
0
0
0
0
0
0
0
0
0
0
0
0
0
0
0
0
0
0
0
0
0
0
0
0
0
0
0
0
0
0
0
0
0
0
0
0
0
0
0
0
0
0
0
0
0
0
0
0
0
0
0
0
0
0
0
0
0
0
0
0
0
0
0
0
0
0
0
0
0
0
0
0
0
0
0
0
0
0
0
0
0
0
0
0
0
0
0
0
0
0
0
0
0
0
0
0
0
0
0
0
0
0
0
0
0
0
0
0
0
0
0
0
0
0
0
0
0
0
0
0
0
0
0
0
0
0
0
0
0
0
0
0
0
0
0
0
0
0
0
0
0
0
0
0
0
0
0
0
0
0
0
0
0
0
0
0
0
0
0
0
0
0
0
0
0
0
0
0
0
0
0
0
0
0
0
0
0
0
0
0
0
0
0
0
0
0
0
0
0
0
0
0
0
0
0
0
0
0
0
0
0
0
0
0
0
0
0
0
0
0
0
0
0
0
0
0
0
0
0
0
0
0
0
0
0
0
0
0
0
0
0
0
0
0
0
0
0
0
0
0
0
0
0
0
0
0
0
0
0
0
0
0
0
0
0
0
0
0
0
0
0
0
0
0
0
0
0
0
0
0
0
0
0
0
0
0
0
0
0
0
0
0
0
0
0
0
0
0
0
0
0
0
0
0
0
0
0
0
0
0
0
0
0
0
0
0
0
0
0
0
0
0
0
0
0
0
0
0
0
0
0
0
0
0
0
0
0
0
0
0
0
0
0
0
0
0
0
0
0
0
0
0
0
0
0
0
0
0
0
0
0
0
0
0
0
0
0
0
0
0
0
0
0
0
0
0
0
0
0
0
0
0
0
0
0
0
0
0
0
0
0
0
0
0
0
0
0
0
0
0
0
0
0
0
0
0
0
0
0
0
0
0
0
0
0
0
0
0
0
0
0
0
0
0
0
0
0
0
0
0
0
0
0
0
0
0
0
0
0
0
0
0
0
0
0
0
0
0
0
0
0
0
0
0
0
0
0
0
0
0
0
0
0
0
0
1.52112e-07
1.60453e-07
1.6148e-07
1.61638e-07
1.62363e-07
1.62823e-07
1.62743e-07
1.62504e-07
1.62454e-07
1.62696e-07
1.62963e-07
1.62911e-07
1.62509e-07
1.6224e-07
1.62272e-07
1.62507e-07
1.62677e-07
1.62633e-07
1.6238e-07
0
0
0
0
0
0
0
0
0
0
0
0
0
0
0
0
0
0
0
0
0
1.49613e-07
1.61572e-07
1.73818e-07
1.80584e-07
1.82261e-07
1.83313e-07
1.84298e-07
1.84697e-07
1.84634e-07
1.84537e-07
1.84637e-07
1.84967e-07
1.8519e-07
1.85034e-07
1.84679e-07
1.84539e-07
1.84675e-07
1.84848e-07
1.84881e-07
1.8469e-07
1.84387e-07
0
0
0
0
0
0
0
0
0
0
0
0
0
0
0
0
0
0
0
0
1.64187e-07
1.69224e-07
1.7934e-07
1.89693e-07
1.95351e-07
1.97102e-07
1.98649e-07
1.99889e-07
2.00339e-07
2.00407e-07
2.00571e-07
2.00916e-07
2.01298e-07
2.01324e-07
2.0103e-07
2.00801e-07
2.00806e-07
2.00946e-07
2.00988e-07
2.0087e-07
2.00648e-07
2.00392e-07
0
0
0
0
0
0
0
0
0
0
0
0
0
0
0
0
0
0
0
1.93389e-07
1.79058e-07
1.83126e-07
1.93052e-07
2.02658e-07
2.07493e-07
2.09168e-07
2.10937e-07
2.12266e-07
2.12712e-07
2.12894e-07
2.1326e-07
2.1382e-07
2.142e-07
2.14011e-07
2.13672e-07
2.13621e-07
2.13756e-07
2.13843e-07
2.13702e-07
2.13443e-07
2.13255e-07
2.13118e-07
0
0
0
0
0
0
0
0
0
0
0
0
0
0
0
0
0
0
3.46197e-07
2.16803e-07
1.92406e-07
1.94889e-07
2.04838e-07
2.13747e-07
2.18263e-07
2.20428e-07
2.22337e-07
2.23476e-07
2.23739e-07
2.23909e-07
2.24307e-07
2.2491e-07
2.2521e-07
2.24902e-07
2.24654e-07
2.24778e-07
2.24998e-07
2.25003e-07
2.24703e-07
2.24387e-07
2.24288e-07
2.24291e-07
0
0
0
0
0
0
0
0
0
0
0
0
0
0
0
0
0
6.72772e-07
2.89846e-07
2.09387e-07
1.99672e-07
2.07226e-07
2.16406e-07
2.23536e-07
2.28167e-07
2.30996e-07
2.32858e-07
2.33858e-07
2.34186e-07
2.34403e-07
2.34737e-07
2.35204e-07
2.35354e-07
2.3505e-07
2.3498e-07
2.35246e-07
2.35497e-07
2.35418e-07
2.35036e-07
2.3475e-07
2.34731e-07
2.34816e-07
0
0
0
0
0
0
0
0
0
0
0
0
0
0
0
0
0
8.25554e-07
3.3987e-07
2.23317e-07
2.09782e-07
2.18853e-07
2.26952e-07
2.33443e-07
2.38494e-07
2.41164e-07
2.42581e-07
2.43688e-07
2.44385e-07
2.44704e-07
2.44938e-07
2.45236e-07
2.45286e-07
2.45046e-07
2.45106e-07
2.45438e-07
2.45687e-07
2.45572e-07
2.45241e-07
2.45084e-07
2.45132e-07
2.4522e-07
0
0
0
0
0
0
0
0
0
0
0
0
0
0
0
0
7.24535e-07
5.68596e-07
3.00818e-07
2.2851e-07
2.21779e-07
2.29543e-07
2.36613e-07
2.4379e-07
2.49087e-07
2.51267e-07
2.52625e-07
2.54049e-07
2.54915e-07
2.55079e-07
2.55101e-07
2.55337e-07
2.55457e-07
2.55294e-07
2.55397e-07
2.55723e-07
2.55932e-07
2.55834e-07
2.55647e-07
2.55645e-07
2.55709e-07
2.55722e-07
0
0
0
0
0
0
0
0
0
0
0
0
0
0
0
0
6.95667e-07
4.4062e-07
2.68157e-07
2.30428e-07
2.318e-07
2.38941e-07
2.46672e-07
2.54599e-07
2.59508e-07
2.61632e-07
2.63671e-07
2.65398e-07
2.66003e-07
2.65789e-07
2.65705e-07
2.65955e-07
2.66092e-07
2.65962e-07
2.66091e-07
2.6635e-07
2.66455e-07
2.66392e-07
2.6637e-07
2.6647e-07
2.66478e-07
2.66378e-07
0
0
0
0
0
0
0
0
0
0
0
0
0
0
0
0
6.40177e-07
3.77246e-07
2.51311e-07
2.32829e-07
2.39485e-07
2.4783e-07
2.57154e-07
2.65374e-07
2.70009e-07
2.72934e-07
2.75673e-07
2.77298e-07
2.77312e-07
2.77042e-07
2.77108e-07
2.77302e-07
2.77263e-07
2.77158e-07
2.77327e-07
2.77438e-07
2.77402e-07
2.77392e-07
2.77489e-07
2.77591e-07
2.77494e-07
2.77307e-07
0
0
0
0
0
0
0
0
0
0
0
0
0
0
0
0
5.80302e-07
3.55326e-07
2.50088e-07
2.38897e-07
2.47705e-07
2.58063e-07
2.68504e-07
2.76375e-07
2.81117e-07
2.84894e-07
2.87738e-07
2.88831e-07
2.88628e-07
2.8885e-07
2.89246e-07
2.89329e-07
2.89146e-07
2.89108e-07
2.89197e-07
2.89064e-07
2.88918e-07
2.88936e-07
2.89026e-07
2.89028e-07
2.88827e-07
2.88638e-07
0
0
0
0
0
0
0
0
0
0
0
0
0
0
0
0
4.89634e-07
3.33421e-07
2.52632e-07
2.4683e-07
2.56888e-07
2.69188e-07
2.80585e-07
2.88389e-07
2.93399e-07
2.97261e-07
2.9961e-07
3.00156e-07
3.00431e-07
3.0124e-07
3.01873e-07
3.01948e-07
3.01852e-07
3.01803e-07
3.01604e-07
3.01253e-07
3.01076e-07
3.01047e-07
3.01009e-07
3.00896e-07
3.00682e-07
3.00586e-07
0
0
0
0
0
0
0
0
0
0
0
0
0
0
0
0
4.34891e-07
3.20604e-07
2.57819e-07
2.55727e-07
2.67332e-07
2.81316e-07
2.93183e-07
3.0101e-07
3.06269e-07
3.09938e-07
3.11798e-07
3.12377e-07
3.13254e-07
3.14305e-07
3.14925e-07
3.15157e-07
3.15253e-07
3.15031e-07
3.14548e-07
3.1416e-07
3.13961e-07
3.1379e-07
3.13572e-07
3.13402e-07
3.13282e-07
3.13344e-07
0
0
0
0
0
0
0
0
0
0
0
0
0
0
0
0
3.91077e-07
3.1643e-07
2.66467e-07
2.6582e-07
2.79232e-07
2.94589e-07
3.06198e-07
3.13761e-07
3.19324e-07
3.23182e-07
3.25189e-07
3.26309e-07
3.27445e-07
3.28325e-07
3.28798e-07
3.29161e-07
3.29249e-07
3.28819e-07
3.28313e-07
3.27994e-07
3.27689e-07
3.27327e-07
3.26941e-07
3.26735e-07
3.26719e-07
3.26926e-07
0
0
0
0
0
0
0
0
0
0
0
0
0
0
0
1.21575e-06
4.27293e-07
3.0569e-07
2.71531e-07
2.76211e-07
2.92284e-07
3.08205e-07
3.19265e-07
3.26848e-07
3.32854e-07
3.37188e-07
3.39878e-07
3.41621e-07
3.42749e-07
3.43342e-07
3.43687e-07
3.44017e-07
3.43935e-07
3.43438e-07
3.43091e-07
3.42764e-07
3.42304e-07
3.4181e-07
3.41308e-07
3.41036e-07
3.41019e-07
3.41248e-07
0
0
0
0
0
0
0
0
0
0
0
0
0
0
0
2.21478e-06
5.16816e-07
2.96859e-07
2.73365e-07
2.8617e-07
3.05298e-07
3.21323e-07
3.32627e-07
3.40997e-07
3.47393e-07
3.52046e-07
3.55368e-07
3.57584e-07
3.58721e-07
3.59258e-07
3.59585e-07
3.59738e-07
3.59531e-07
3.59149e-07
3.58893e-07
3.58468e-07
3.57928e-07
3.57367e-07
3.56789e-07
3.56459e-07
3.56377e-07
3.56513e-07
0
0
0
0
0
0
0
0
0
0
0
0
0
0
0
1.81514e-06
5.32968e-07
3.02704e-07
2.81233e-07
2.97838e-07
3.18295e-07
3.34575e-07
3.47125e-07
3.56634e-07
3.6332e-07
3.68108e-07
3.71741e-07
3.74182e-07
3.75413e-07
3.76011e-07
3.7631e-07
3.76306e-07
3.76138e-07
3.7585e-07
3.75521e-07
3.75074e-07
3.74611e-07
3.74037e-07
3.73423e-07
3.73034e-07
3.72843e-07
3.72815e-07
0
0
0
0
0
0
0
0
0
0
0
0
0
0
0
1.37512e-06
5.17795e-07
3.12864e-07
2.93129e-07
3.11005e-07
3.31988e-07
3.49113e-07
3.62938e-07
3.73257e-07
3.80268e-07
3.85275e-07
3.8909e-07
3.91691e-07
3.93117e-07
3.93726e-07
3.93919e-07
3.9389e-07
3.93845e-07
3.93535e-07
3.93133e-07
3.92778e-07
3.92422e-07
3.91871e-07
3.91272e-07
3.90811e-07
3.90474e-07
3.90267e-07
0
0
0
0
0
0
0
0
0
0
0
0
0
0
3.25273e-08
1.09172e-06
4.98679e-07
3.22811e-07
3.0674e-07
3.25468e-07
3.47116e-07
3.65441e-07
3.80169e-07
3.91003e-07
3.98439e-07
4.03728e-07
4.07639e-07
4.1033e-07
4.11851e-07
4.12402e-07
4.1254e-07
4.12565e-07
4.12583e-07
4.12284e-07
4.11954e-07
4.11691e-07
4.11373e-07
4.10863e-07
4.1028e-07
4.0972e-07
4.09226e-07
4.08875e-07
0
0
0
0
0
0
0
0
0
0
0
0
0
0
7.58302e-08
9.08409e-07
4.8192e-07
3.3411e-07
3.22303e-07
3.41187e-07
3.63508e-07
3.83086e-07
3.98572e-07
4.09878e-07
4.17825e-07
4.235e-07
4.27538e-07
4.30184e-07
4.31596e-07
4.32081e-07
4.32307e-07
4.32409e-07
4.32472e-07
4.32352e-07
4.32144e-07
4.31888e-07
4.31572e-07
4.31091e-07
4.30474e-07
4.29832e-07
4.29246e-07
4.28838e-07
0
0
0
0
0
0
0
0
0
0
0
0
0
0
8.67342e-08
7.81178e-07
4.70389e-07
3.47962e-07
3.39055e-07
3.58022e-07
3.8135e-07
4.02045e-07
4.18147e-07
4.29918e-07
4.38438e-07
4.44592e-07
4.4879e-07
4.51301e-07
4.52622e-07
4.53162e-07
4.53529e-07
4.53721e-07
4.53893e-07
4.53976e-07
4.5378e-07
4.53452e-07
4.53082e-07
4.52535e-07
4.51804e-07
4.51141e-07
4.50582e-07
4.50234e-07
0
0
0
0
0
0
0
0
0
0
0
0
0
1.42546e-08
9.63343e-08
6.91638e-07
4.6535e-07
3.62434e-07
3.55752e-07
3.75867e-07
4.00545e-07
4.22139e-07
4.38827e-07
4.51274e-07
4.60512e-07
4.67088e-07
4.71353e-07
4.73812e-07
4.7531e-07
4.7608e-07
4.76543e-07
4.76827e-07
4.77087e-07
4.77216e-07
4.76981e-07
4.76593e-07
4.761e-07
4.75398e-07
4.74533e-07
4.73893e-07
4.73415e-07
4.73188e-07
0
0
0
0
0
0
0
0
0
0
0
0
0
5.76988e-08
1.03833e-07
6.30151e-07
4.63776e-07
3.7646e-07
3.73339e-07
3.95204e-07
4.20982e-07
4.43328e-07
4.6078e-07
4.74162e-07
4.84182e-07
4.91084e-07
4.95458e-07
4.98174e-07
5.00002e-07
5.01094e-07
5.01583e-07
5.0187e-07
5.02103e-07
5.02167e-07
5.01919e-07
5.01443e-07
5.00755e-07
4.99887e-07
4.98936e-07
4.98305e-07
4.9787e-07
4.97737e-07
0
0
0
0
0
0
0
0
0
0
0
0
0
6.52848e-08
9.10726e-08
5.80239e-07
4.62913e-07
3.91816e-07
3.92738e-07
4.15884e-07
4.42439e-07
4.65685e-07
4.84275e-07
4.98727e-07
5.0945e-07
5.16748e-07
5.21579e-07
5.24817e-07
5.26827e-07
5.2821e-07
5.28708e-07
5.2901e-07
5.2922e-07
5.29213e-07
5.28893e-07
5.28209e-07
5.27322e-07
5.26351e-07
5.25369e-07
5.24695e-07
5.24239e-07
5.24136e-07
0
0
0
0
0
0
0
0
0
0
0
0
0
1.07278e-07
1.03972e-06
5.90371e-07
4.5656e-07
4.05262e-07
4.12542e-07
4.37667e-07
4.65222e-07
4.89599e-07
5.09483e-07
5.24979e-07
5.36458e-07
5.44501e-07
5.50147e-07
5.53874e-07
5.55761e-07
5.57423e-07
5.58037e-07
5.5842e-07
5.58609e-07
5.58514e-07
5.58e-07
5.57085e-07
5.56109e-07
5.55107e-07
5.54091e-07
5.53282e-07
5.52717e-07
5.52546e-07
0
0
0
0
0
0
0
0
0
0
0
0
3.25656e-08
1.34867e-07
1.99384e-06
6.51143e-07
4.49557e-07
4.16188e-07
4.32207e-07
4.60549e-07
4.8975e-07
5.15497e-07
5.36555e-07
5.53064e-07
5.65553e-07
5.74642e-07
5.81029e-07
5.85202e-07
5.87127e-07
5.88941e-07
5.89648e-07
5.90148e-07
5.90239e-07
5.90036e-07
5.89352e-07
5.88414e-07
5.87518e-07
5.86546e-07
5.85482e-07
5.84467e-07
5.837e-07
5.83349e-07
0
0
0
0
0
0
0
0
0
0
0
0
5.82888e-08
1.39676e-07
2.47901e-06
7.24473e-07
4.48241e-07
4.26838e-07
4.51505e-07
4.84212e-07
5.16207e-07
5.43713e-07
5.6595e-07
5.8361e-07
5.97276e-07
6.07369e-07
6.14261e-07
6.18922e-07
6.21251e-07
6.23049e-07
6.23744e-07
6.24294e-07
6.24241e-07
6.23936e-07
6.23235e-07
6.22494e-07
6.21764e-07
6.20855e-07
6.19727e-07
6.18501e-07
6.17485e-07
6.16883e-07
0
0
0
0
0
0
0
0
0
0
0
0
6.6185e-08
1.11522e-07
1.98306e-06
7.28026e-07
4.65247e-07
4.45363e-07
4.72568e-07
5.09445e-07
5.4473e-07
5.74146e-07
5.97933e-07
6.17101e-07
6.3197e-07
6.42946e-07
6.50416e-07
6.55399e-07
6.58324e-07
6.60103e-07
6.60884e-07
6.61308e-07
6.61112e-07
6.60712e-07
6.60178e-07
6.59704e-07
6.59096e-07
6.58233e-07
6.57034e-07
6.55686e-07
6.54474e-07
6.53656e-07
0
0
0
0
0
0
0
0
0
0
0
1.56422e-08
7.68244e-08
1.14314e-07
1.58934e-06
7.13404e-07
4.84536e-07
4.6705e-07
4.9771e-07
5.38526e-07
5.75904e-07
6.07057e-07
6.32872e-07
6.53701e-07
6.69751e-07
6.81772e-07
6.90142e-07
6.95322e-07
6.98892e-07
7.00656e-07
7.01644e-07
7.01761e-07
7.0145e-07
7.01061e-07
7.00759e-07
7.00389e-07
6.99753e-07
6.98884e-07
6.97651e-07
6.96349e-07
6.95083e-07
6.9418e-07
0
0
0
0
0
0
0
0
0
0
0
4.6758e-08
8.40633e-08
1.21517e-07
1.31512e-06
6.94258e-07
5.01925e-07
4.91565e-07
5.27368e-07
5.70578e-07
6.09446e-07
6.43103e-07
6.71351e-07
6.93791e-07
7.11074e-07
7.24277e-07
7.3382e-07
7.39603e-07
7.43627e-07
7.45396e-07
7.46498e-07
7.46458e-07
7.46248e-07
7.45925e-07
7.45688e-07
7.45134e-07
7.4433e-07
7.43383e-07
7.42172e-07
7.41083e-07
7.39943e-07
7.39139e-07
0
0
0
0
0
0
0
0
0
0
0
5.18786e-08
9.34117e-08
1.28152e-07
1.11448e-06
6.75284e-07
5.20286e-07
5.19782e-07
5.59643e-07
6.04562e-07
6.46162e-07
6.82972e-07
7.13608e-07
7.37993e-07
7.57105e-07
7.71642e-07
7.82221e-07
7.88782e-07
7.93216e-07
7.95351e-07
7.964e-07
7.96446e-07
7.96465e-07
7.96165e-07
7.95805e-07
7.94946e-07
7.93953e-07
7.92871e-07
7.91684e-07
7.90847e-07
7.89964e-07
7.89426e-07
0
0
0
0
0
0
0
0
0
0
0
6.53823e-08
1.02804e-07
1.30034e-07
9.58222e-07
6.58324e-07
5.40428e-07
5.50085e-07
5.93597e-07
6.4181e-07
6.87328e-07
7.2711e-07
7.6016e-07
7.87195e-07
8.08799e-07
8.25014e-07
8.3664e-07
8.44232e-07
8.49148e-07
8.51905e-07
8.5295e-07
8.53232e-07
8.53402e-07
8.53043e-07
8.52434e-07
8.51329e-07
8.50178e-07
8.48925e-07
8.47682e-07
8.46932e-07
8.46234e-07
8.45976e-07
0
0
0
0
0
0
0
0
0
0
2.68135e-08
7.99158e-08
1.04033e-07
1.34672e-07
8.336e-07
6.42889e-07
5.6241e-07
5.8276e-07
6.31169e-07
6.8417e-07
7.33718e-07
7.76603e-07
8.12823e-07
8.43082e-07
8.67398e-07
8.85694e-07
8.9889e-07
9.07831e-07
9.13364e-07
9.16735e-07
9.18041e-07
9.18705e-07
9.18979e-07
9.18576e-07
9.17745e-07
9.16573e-07
9.15286e-07
9.13829e-07
9.12413e-07
9.11513e-07
9.10807e-07
9.10679e-07
0
0
0
0
0
0
0
0
0
0
5.43265e-08
8.06339e-08
1.06933e-07
1.22057e-07
7.24292e-07
6.30264e-07
5.88195e-07
6.20067e-07
6.74813e-07
7.32851e-07
7.86421e-07
8.33358e-07
8.73783e-07
9.0764e-07
9.34868e-07
9.55848e-07
9.7133e-07
9.81863e-07
9.88062e-07
9.92117e-07
9.94016e-07
9.95135e-07
9.95379e-07
9.9499e-07
9.94058e-07
9.9293e-07
9.91453e-07
9.89732e-07
9.87966e-07
9.8666e-07
9.85681e-07
9.85448e-07
0
0
0
0
0
0
0
0
0
0
5.39181e-08
8.86039e-08
1.48614e-07
1.18773e-06
6.99299e-07
6.16902e-07
6.14159e-07
6.62374e-07
7.25569e-07
7.88951e-07
8.47331e-07
8.99521e-07
9.45059e-07
9.83379e-07
1.01448e-06
1.03878e-06
1.05672e-06
1.06937e-06
1.07684e-06
1.08185e-06
1.08448e-06
1.08594e-06
1.086e-06
1.08587e-06
1.08502e-06
1.08395e-06
1.08227e-06
1.08032e-06
1.07812e-06
1.07629e-06
1.07484e-06
1.07427e-06
0
0
0
0
0
0
0
0
0
0
6.6913e-08
9.62969e-08
1.62981e-07
2.3882e-06
7.58571e-07
6.0036e-07
6.37137e-07
7.08441e-07
7.8351e-07
8.54285e-07
9.19199e-07
9.77639e-07
1.02908e-06
1.07317e-06
1.10977e-06
1.13832e-06
1.15897e-06
1.17397e-06
1.18311e-06
1.18948e-06
1.19267e-06
1.19408e-06
1.1941e-06
1.19435e-06
1.1936e-06
1.19251e-06
1.19069e-06
1.18858e-06
1.18603e-06
1.18377e-06
1.18185e-06
1.18086e-06
0
0
0
0
0
0
0
0
0
3.32496e-08
7.48156e-08
9.66778e-08
1.19029e-07
1.65398e-06
7.23787e-07
6.13794e-07
6.74657e-07
7.63167e-07
8.50288e-07
9.30922e-07
1.00459e-06
1.07092e-06
1.12975e-06
1.18074e-06
1.22342e-06
1.25696e-06
1.28133e-06
1.29906e-06
1.3103e-06
1.31797e-06
1.32157e-06
1.32304e-06
1.32344e-06
1.32378e-06
1.32306e-06
1.32174e-06
1.31973e-06
1.31735e-06
1.31442e-06
1.31179e-06
1.30937e-06
1.30789e-06
0
0
0
0
0
0
0
0
0
4.73155e-08
7.51129e-08
1.0626e-07
1.2838e-07
1.12415e-06
6.69657e-07
6.37343e-07
7.25051e-07
8.30447e-07
9.30668e-07
1.02274e-06
1.10683e-06
1.18327e-06
1.25199e-06
1.31199e-06
1.36225e-06
1.40224e-06
1.43214e-06
1.45388e-06
1.46795e-06
1.47668e-06
1.48111e-06
1.48327e-06
1.48436e-06
1.48488e-06
1.48452e-06
1.48318e-06
1.48113e-06
1.47851e-06
1.47518e-06
1.47205e-06
1.46929e-06
1.46743e-06
0
0
0
0
0
0
0
0
0
4.58045e-08
8.37504e-08
1.12964e-07
1.316e-07
7.3924e-07
6.11861e-07
6.67265e-07
7.87661e-07
9.11747e-07
1.02723e-06
1.13409e-06
1.23226e-06
1.31984e-06
1.39728e-06
1.46564e-06
1.52253e-06
1.56841e-06
1.60182e-06
1.62503e-06
1.64017e-06
1.64943e-06
1.65453e-06
1.65718e-06
1.65863e-06
1.65924e-06
1.659e-06
1.65774e-06
1.65582e-06
1.65315e-06
1.64977e-06
1.64686e-06
1.64392e-06
1.6421e-06
0
0
0
0
0
0
0
0
0
5.92979e-08
9.06299e-08
1.08312e-07
1.36289e-07
4.64217e-07
5.62959e-07
7.07558e-07
8.65472e-07
1.01313e-06
1.14841e-06
1.27102e-06
1.37865e-06
1.47495e-06
1.56385e-06
1.64289e-06
1.71028e-06
1.76423e-06
1.80434e-06
1.8323e-06
1.85052e-06
1.86157e-06
1.86774e-06
1.87113e-06
1.87303e-06
1.87374e-06
1.87375e-06
1.87231e-06
1.87007e-06
1.86671e-06
1.86268e-06
1.85891e-06
1.85567e-06
1.85358e-06
0
0
0
0
0
0
0
0
0
7.08921e-08
8.4394e-08
1.10224e-07
1.42855e-07
2.62803e-07
5.30144e-07
7.64401e-07
9.65023e-07
1.13913e-06
1.29135e-06
1.42364e-06
1.54496e-06
1.66052e-06
1.76527e-06
1.85627e-06
1.9313e-06
1.99058e-06
2.03502e-06
2.06664e-06
2.08747e-06
2.10013e-06
2.10743e-06
2.11145e-06
2.11382e-06
2.1148e-06
2.11522e-06
2.11383e-06
2.1117e-06
2.10804e-06
2.10366e-06
2.09966e-06
2.09618e-06
2.094e-06
0
0
0
0
0
0
0
0
2.91956e-08
6.13119e-08
8.64014e-08
1.2126e-07
1.82806e-07
1.2619e-07
5.20127e-07
8.42811e-07
1.08867e-06
1.28692e-06
1.45564e-06
1.60781e-06
1.74931e-06
1.88026e-06
1.99568e-06
2.09353e-06
2.17282e-06
2.23479e-06
2.28156e-06
2.31508e-06
2.33723e-06
2.35094e-06
2.35913e-06
2.36377e-06
2.36689e-06
2.36843e-06
2.36941e-06
2.36837e-06
2.3665e-06
2.36297e-06
2.35849e-06
2.35448e-06
2.35097e-06
2.34872e-06
0
0
0
0
0
0
0
0
2.64044e-08
6.69786e-08
9.79154e-08
8.39324e-08
0
0
5.61646e-07
9.55505e-07
1.23795e-06
1.46065e-06
1.6529e-06
1.82743e-06
1.98334e-06
2.12331e-06
2.24333e-06
2.34202e-06
2.42109e-06
2.48327e-06
2.53043e-06
2.56398e-06
2.58635e-06
2.60026e-06
2.60853e-06
2.61312e-06
2.61633e-06
2.61803e-06
2.61927e-06
2.61883e-06
2.61778e-06
2.61556e-06
2.61213e-06
2.60902e-06
2.60592e-06
2.60359e-06
0
0
0
0
0
0
0
0
4.06872e-08
7.90042e-08
9.67777e-08
1.28199e-07
0
0
6.571e-07
1.10844e-06
1.42071e-06
1.66762e-06
1.88165e-06
2.0731e-06
2.23871e-06
2.37753e-06
2.49143e-06
2.58251e-06
2.65384e-06
2.7073e-06
2.74554e-06
2.77348e-06
2.79204e-06
2.80418e-06
2.81202e-06
2.81699e-06
2.82112e-06
2.82419e-06
2.82661e-06
2.82789e-06
2.82785e-06
2.82601e-06
2.82206e-06
2.8192e-06
2.81718e-06
2.81582e-06
0
0
0
0
0
0
0
0
5.14904e-08
7.41755e-08
9.38338e-08
1.3227e-07
0
0
7.64396e-07
1.28622e-06
1.63662e-06
1.90779e-06
2.13672e-06
2.33383e-06
2.49532e-06
2.61903e-06
2.7134e-06
2.78493e-06
2.8393e-06
2.88486e-06
2.92202e-06
2.94418e-06
2.95784e-06
2.96636e-06
2.9716e-06
2.97497e-06
2.97786e-06
2.98023e-06
2.98207e-06
2.98418e-06
2.98585e-06
2.98637e-06
2.98447e-06
2.98342e-06
2.98205e-06
2.98031e-06
0
0
0
0
0
0
0
0
3.59889e-08
7.39493e-08
9.81195e-08
1.81316e-07
0
0
9.08361e-07
1.49393e-06
1.87716e-06
2.16826e-06
2.40427e-06
2.58985e-06
2.72488e-06
2.81794e-06
2.87977e-06
2.92397e-06
2.95988e-06
2.99105e-06
3.01421e-06
3.02814e-06
3.03572e-06
3.04086e-06
3.04401e-06
3.04589e-06
3.04769e-06
3.04965e-06
3.05162e-06
3.05463e-06
3.05714e-06
3.05916e-06
3.05837e-06
3.05897e-06
3.05885e-06
3.05741e-06
0
0
0
0
0
0
0
0
2.85441e-08
6.74494e-08
9.11031e-08
0
0
0
1.10823e-06
1.74181e-06
2.15111e-06
2.44892e-06
2.66732e-06
2.81273e-06
2.90072e-06
2.94607e-06
2.96674e-06
2.97838e-06
2.99055e-06
3.0027e-06
3.01179e-06
3.01742e-06
3.01967e-06
3.02104e-06
3.0225e-06
3.02359e-06
3.0249e-06
3.02684e-06
3.02919e-06
3.03278e-06
3.03581e-06
3.03875e-06
3.03869e-06
3.0406e-06
3.04143e-06
3.04024e-06
0
0
0
0
0
0
0
0
9.25678e-09
5.82088e-08
9.28713e-08
0
0
6.12528e-08
1.3721e-06
2.02515e-06
2.43639e-06
2.71759e-06
2.89006e-06
2.97548e-06
2.99859e-06
2.98611e-06
2.96227e-06
2.94064e-06
2.92779e-06
2.92138e-06
2.91763e-06
2.91549e-06
2.91283e-06
2.91059e-06
2.91066e-06
2.9115e-06
2.91297e-06
2.91538e-06
2.91828e-06
2.92234e-06
2.9266e-06
2.93072e-06
2.93172e-06
2.93468e-06
2.93596e-06
2.93473e-06
0
0
0
0
0
0
0
0
0
5.00925e-08
9.06288e-08
0
0
3.52737e-07
1.67862e-06
2.32616e-06
2.71494e-06
2.94383e-06
3.0437e-06
3.05165e-06
3.00217e-06
2.93303e-06
2.86739e-06
2.81508e-06
2.77972e-06
2.75791e-06
2.7439e-06
2.73529e-06
2.72922e-06
2.7247e-06
2.72322e-06
2.72384e-06
2.72583e-06
2.72913e-06
2.73298e-06
2.73748e-06
2.74339e-06
2.74948e-06
2.75264e-06
2.75719e-06
2.75925e-06
2.75828e-06
0
0
0
0
0
0
0
0
0
5.24498e-08
0
0
0
7.39977e-07
2.00991e-06
2.6152e-06
2.9435e-06
3.09429e-06
3.10585e-06
3.02942e-06
2.91315e-06
2.7935e-06
2.6913e-06
2.61366e-06
2.56155e-06
2.52864e-06
2.50756e-06
2.4951e-06
2.48775e-06
2.48263e-06
2.48032e-06
2.48176e-06
2.48537e-06
2.49023e-06
2.49555e-06
2.50093e-06
2.50875e-06
2.51711e-06
2.52286e-06
2.52944e-06
2.53273e-06
2.53237e-06
0
0
0
0
0
0
0
0
0
3.64696e-08
0
0
0
1.18913e-06
2.33347e-06
2.87149e-06
3.11294e-06
3.16328e-06
3.07879e-06
2.9215e-06
2.74443e-06
2.58322e-06
2.45462e-06
2.35987e-06
2.29607e-06
2.25597e-06
2.23094e-06
2.21603e-06
2.20781e-06
2.20451e-06
2.20542e-06
2.20864e-06
2.21317e-06
2.21986e-06
2.22777e-06
2.23557e-06
2.24625e-06
2.25735e-06
2.26603e-06
2.27499e-06
2.2799e-06
2.28051e-06
0
0
0
0
0
0
0
0
0
3.80589e-08
0
0
0
1.64828e-06
2.62913e-06
3.06865e-06
3.20824e-06
3.15084e-06
2.97753e-06
2.74642e-06
2.51922e-06
2.33191e-06
2.18615e-06
2.07921e-06
2.00919e-06
1.96565e-06
1.9382e-06
1.92238e-06
1.91568e-06
1.91554e-06
1.91849e-06
1.92334e-06
1.93072e-06
1.94087e-06
1.95246e-06
1.96383e-06
1.97807e-06
1.99144e-06
2.00161e-06
2.01269e-06
2.01988e-06
2.02215e-06
0
0
0
0
0
0
0
0
0
3.81388e-08
0
0
0
2.08861e-06
2.89912e-06
3.21655e-06
3.23743e-06
3.07515e-06
2.81496e-06
2.52513e-06
2.27148e-06
2.06835e-06
1.90868e-06
1.79725e-06
1.72643e-06
1.68052e-06
1.6523e-06
1.63822e-06
1.63445e-06
1.63662e-06
1.64067e-06
1.64712e-06
1.65721e-06
1.67051e-06
1.68527e-06
1.69958e-06
1.71666e-06
1.73256e-06
1.74568e-06
1.75941e-06
1.76781e-06
1.77124e-06
0
0
0
0
0
0
0
0
0
7.85335e-08
0
0
6.83022e-07
2.47673e-06
3.11032e-06
3.30768e-06
3.2212e-06
2.96158e-06
2.62497e-06
2.29886e-06
2.03178e-06
1.81451e-06
1.64982e-06
1.53926e-06
1.46711e-06
1.42093e-06
1.39443e-06
1.38252e-06
1.38052e-06
1.38304e-06
1.38724e-06
1.39465e-06
1.40602e-06
1.42059e-06
1.43666e-06
1.45254e-06
1.47188e-06
1.49044e-06
1.50647e-06
1.52277e-06
1.53296e-06
1.53769e-06
0
0
0
0
0
0
0
0
0