/*--------------------------------*- C++ -*----------------------------------*\
| =========                 |                                                 |
| \\      /  F ield         | OpenFOAM: The Open Source CFD Toolbox           |
|  \\    /   O peration     | Version:  2406                                  |
|   \\  /    A nd           | Website:  www.openfoam.com                      |
|    \\/     M anipulation  |                                                 |
\*---------------------------------------------------------------------------*/
FoamFile
{
    version     2.0;
    format      ascii;
    arch        "LSB;label=32;scalar=64";
    class       volScalarField;
    location    "0.109";
    object      J;
}
// * * * * * * * * * * * * * * * * * * * * * * * * * * * * * * * * * * * * * //

dimensions      [0 -3 -1 0 0 0 0];

internalField   nonuniform List<scalar> 
8988
(
0
0
0
0
0
0
0
0
0
0
0
0
0
0
0
0
0
0
0
0
0
0
0
0
0
0
0
0
0
0
0
0
0
0
0
0
0
0
0
0
0
0
0
0
0
0
0
0
0
0
0
0
0
0
0
0
0
0
0
0
0
0
0
0
0
0
0
0
0
0
0
0
0
0
0
0
0
0
0
0
0
0
0
0
0
0
0
0
0
0
0
0
0
0
0
0
0
0
0
0
0
0
0
0
0
0
0
0
0
0
0
0
0
0
0
0
0
0
0
0
0
0
0
0
0
0
0
0
0
0
0
0
0
0
0
0
0
0
0
0
0
0
0
0
0
0
0
0
0
0
0
0
0
0
0
0
0
0
0
0
0
0
0
0
0
0
0
0
0
0
0
0
0
0
0
0
0
0
0
0
0
0
0
0
0
0
0
0
0
0
0
0
0
0
0
0
0
0
0
0
0
0
0
0
0
0
0
0
0
0
0
0
0
0
0
0
0
0
0
0
0
0
0
0
0
0
0
0
0
0
0
0
0
0
0
0
0
0
0
0
0
0
0
0
0
0
0
0
0
0
0
0
0
0
0
0
0
0
0
0
0
0
0
0
0
0
0
0
0
0
0
0
0
0
0
0
0
0
0
0
0
0
0
0
0
0
0
0
0
0
0
0
0
0
0
0
0
0
0
0
0
0
0
0
0
0
0
0
0
0
0
0
0
0
0
0
0
0
0
0
0
0
0
0
0
0
0
0
0
0
0
0
0
0
0
0
0
0
0
0
0
0
0
0
0
0
0
0
0
0
0
0
0
0
0
0
0
0
0
0
0
0
0
0
0
0
0
0
0
0
0
0
0
0
0
0
0
0
0
0
0
0
0
0
0
0
0
0
0
0
0
0
0
0
0
0
0
0
0
0
0
0
0
0
0
0
0
0
0
0
0
0
0
0
0
0
0
0
0
0
0
0
0
0
0
0
0
0
0
0
0
0
0
0
0
0
0
0
0
0
0
0
0
0
0
0
0
0
0
0
0
0
0
0
0
0
0
0
0
0
0
0
0
0
0
0
0
0
0
0
0
0
0
0
0
0
0
0
0
0
0
0
0
0
0
0
0
0
0
0
0
0
0
0
0
0
0
0
0
0
0
0
0
0
0
0
0
0
0
0
0
0
0
0
0
0
0
0
0
0
0
0
0
0
0
0
0
0
0
0
0
0
0
0
0
0
0
0
0
0
0
0
0
0
0
0
0
0
0
0
0
0
0
0
0
0
0
0
0
0
0
0
0
0
0
0
0
0
0
0
0
0
0
0
0
0
0
0
0
0
0
0
0
0
0
0
0
0
0
0
0
0
0
0
0
0
0
0
0
0
0
0
0
0
0
0
0
0
0
0
0
0
0
0
0
0
0
0
0
0
0
0
0
0
0
0
0
0
0
0
0
0
0
0
0
0
0
0
0
0
0
0
0
0
0
0
0
0
0
0
0
0
0
0
0
0
0
0
0
0
0
0
0
0
0
0
0
0
0
0
0
0
0
0
0
0
0
0
0
0
0
0
0
0
0
0
0
0
0
0
0
0
0
0
0
0
0
0
0
0
0
0
0
0
0
0
0
0
0
0
0
0
0
0
0
0
0
0
0
0
0
0
0
0
0
0
0
0
0
0
0
0
0
0
0
0
0
0
0
0
0
0
0
0
0
0
0
0
0
0
0
0
0
0
0
0
0
0
0
0
0
0
0
0
0
0
0
0
0
0
0
0
0
0
0
0
0
0
0
0
0
0
0
0
0
0
0
0
0
0
0
0
0
0
0
0
0
0
0
0
0
0
0
0
0
0
0
0
0
0
0
0
0
0
0
0
0
0
0
0
0
0
0
0
0
0
0
0
0
0
0
0
0
0
0
0
0
0
0
0
0
0
0
0
0
0
0
0
0
0
0
0
0
0
0
0
0
0
0
0
0
0
0
0
0
0
0
0
0
0
0
0
0
0
0
0
0
0
0
0
0
0
0
0
0
0
0
0
0
0
0
0
0
0
0
0
0
0
0
0
0
0
0
0
0
0
0
0
0
0
0
0
0
0
0
0
0
0
0
0
0
0
0
0
0
0
0
0
0
0
0
0
0
0
0
0
0
0
0
0
0
0
0
0
0
0
0
0
0
0
0
0
0
0
0
0
0
0
0
0
0
0
0
0
0
0
0
0
0
0
0
0
0
0
0
0
0
0
0
0
0
0
0
0
0
0
0
0
0
0
0
0
0
0
0
0
0
0
0
0
0
0
0
0
0
0
0
0
0
0
0
0
0
0
0
0
0
0
0
0
0
0
0
0
0
0
0
0
0
0
0
0
0
0
0
0
0
0
0
0
0
0
0
0
0
0
0
0
0
0
0
0
0
0
0
0
0
0
0
0
0
0
0
0
0
0
0
0
0
0
0
0
0
0
0
0
0
0
0
0
0
0
0
0
0
0
0
0
0
0
0
0
0
0
0
0
0
0
0
0
0
0
0
0
0
0
0
0
0
0
0
0
0
0
0
0
0
0
0
0
0
0
0
0
0
0
0
0
0
0
0
0
0
0
0
0
0
0
0
0
0
0
0
0
0
0
0
0
0
0
0
0
0
0
0
0
0
0
0
0
0
0
0
0
0
0
0
0
0
0
0
0
0
0
0
0
0
0
0
0
0
0
0
0
0
0
0
0
0
0
0
0
0
0
0
0
0
0
0
0
0
0
0
0
0
0
0
0
0
0
0
0
0
0
0
0
0
0
0
0
0
0
0
0
0
0
0
0
0
0
0
0
0
0
0
0
0
0
0
0
0
0
0
0
0
0
0
0
0
0
0
0
0
0
0
0
0
0
0
0
0
0
0
0
0
0
0
0
0
0
0
0
0
0
0
0
0
0
0
0
0
0
0
0
0
0
0
0
0
0
0
0
0
0
0
0
0
0
0
0
0
0
0
0
0
0
0
0
0
0
0
0
0
0
0
0
0
0
0
0
0
0
0
0
0
0
0
0
0
0
0
0
0
0
0
0
0
0
0
0
0
0
0
0
0
0
0
0
0
0
0
0
0
0
0
0
0
0
0
0
0
0
0
0
0
0
0
0
0
0
0
0
0
0
0
0
0
0
0
0
0
0
0
0
0
0
0
0
0
0
0
0
0
0
0
0
0
0
0
0
0
0
0
0
0
0
0
0
0
0
0
0
0
0
0
0
0
0
0
0
0
0
0
0
0
0
0
0
0
0
0
0
0
0
0
0
0
0
0
0
0
0
0
0
0
0
0
0
0
0
0
0
0
0
0
0
0
0
0
0
0
0
0
0
0
0
0
0
0
0
0
0
0
0
0
0
0
0
0
0
0
0
0
0
0
0
0
0
0
0
0
0
0
0
0
0
0
0
0
0
0
0
0
0
0
0
0
0
0
0
0
0
0
0
0
0
0
0
0
0
0
0
0
0
0
0
0
0
0
0
0
0
0
0
0
0
0
0
0
0
0
0
0
0
0
0
0
0
0
0
0
0
0
0
0
0
0
0
0
0
0
0
0
0
0
0
0
0
0
0
0
0
0
0
0
0
0
0
0
0
0
0
0
0
0
0
0
0
0
0
0
0
0
0
0
0
0
0
0
0
0
0
0
0
0
0
0
0
0
0
0
0
0
0
0
0
0
0
0
0
0
0
0
0
0
0
0
0
0
0
0
0
0
0
0
0
0
0
0
0
0
0
0
0
0
0
0
0
0
0
0
0
0
0
0
0
0
0
0
0
0
0
0
0
0
0
0
0
0
0
0
0
0
0
0
0
0
0
0
0
0
0
0
0
0
0
0
0
0
0
0
0
0
0
0
0
0
0
0
0
0
0
0
0
0
0
0
0
0
0
0
0
0
0
0
0
0
0
0
0
0
0
0
0
0
0
0
0
0
0
0
0
0
0
0
0
0
0
0
0
0
0
0
0
0
0
0
0
0
0
0
0
0
0
0
0
0
0
0
0
0
0
0
0
0
0
0
0
0
0
0
0
0
0
0
0
0
0
0
0
0
0
0
0
0
0
0
0
0
0
0
0
0
0
0
0
0
0
0
0
0
0
0
0
0
0
0
0
0
0
0
0
0
0
0
0
0
0
0
0
0
0
0
0
0
0
0
0
0
0
0
0
0
0
0
0
0
0
0
0
0
0
0
0
0
0
0
0
0
0
0
0
0
0
0
0
0
0
0
0
0
0
0
0
0
0
0
0
0
0
0
0
0
0
0
0
0
0
0
0
0
0
0
0
0
0
0
0
0
0
0
0
0
0
0
0
0
0
0
0
0
0
0
0
0
0
0
0
0
0
0
0
0
0
0
0
0
0
0
0
0
0
0
0
0
0
0
0
0
0
0
0
0
0
0
0
0
0
0
0
0
0
0
0
0
0
0
0
0
0
0
0
0
0
0
0
0
0
0
0
0
0
0
0
0
0
0
0
0
0
0
0
0
0
0
0
0
0
0
0
0
0
0
0
0
0
0
0
0
0
0
0
0
0
0
0
0
0
0
0
0
0
0
0
0
0
0
0
0
0
0
0
0
0
0
0
0
0
0
0
0
0
0
0
0
0
0
0
0
0
0
0
0
0
0
0
0
0
0
0
0
0
0
0
0
0
0
0
0
0
0
0
0
0
0
0
0
0
0
0
0
0
0
0
0
0
0
0
0
0
0
0
0
0
0
0
0
0
0
0
0
0
0
0
0
0
0
0
0
0
0
0
0
0
0
0
0
0
0
0
0
0
0
0
0
0
0
0
0
0
0
0
0
0
0
0
0
0
0
0
0
0
0
0
0
0
0
0
0
0
0
0
0
0
0
0
0
0
0
0
0
0
0
0
0
0
0
0
0
0
0
0
0
0
0
0
0
0
0
0
0
0
0
0
0
0
0
0
0
0
0
0
0
0
0
0
0
0
0
0
0
0
0
0
0
0
0
0
0
0
0
0
0
0
0
0
0
0
0
0
0
0
0
0
0
0
0
0
0
0
0
0
0
0
0
0
0
0
0
0
0
0
0
0
0
0
0
0
0
0
0
0
0
0
0
0
0
0
0
0
0
0
0
0
0
0
0
0
0
0
0
0
0
0
0
0
0
0
0
0
0
0
0
0
0
0
0
0
0
0
0
0
0
0
0
0
0
0
0
0
0
0
0
0
0
0
0
0
0
0
0
0
0
0
0
0
0
0
0
0
0
0
0
0
0
0
0
0
0
0
0
0
0
0
0
0
0
0
0
0
0
0
0
0
0
0
0
0
0
0
0
0
0
0
0
0
0
0
0
0
0
0
0
0
0
0
0
0
0
0
0
0
0
0
0
0
0
0
0
0
0
0
0
0
0
0
0
0
0
0
0
0
0
0
0
0
0
0
0
0
0
0
0
0
0
0
0
0
0
0
0
0
0
0
0
0
0
0
0
0
0
0
0
0
0
0
0
0
0
0
0
0
0
0
0
0
0
0
0
0
0
0
0
0
0
0
0
0
0
0
0
0
0
0
0
0
0
0
0
0
0
0
0
0
0
0
0
0
0
0
0
0
0
0
0
0
0
0
0
0
0
0
0
0
0
0
0
0
0
0
0
0
0
0
0
0
0
0
0
0
0
0
0
0
0
0
0
0
0
0
0
0
0
0
0
0
0
0
0
0
0
0
0
0
0
0
0
0
0
0
0
0
0
0
0
0
0
0
0
0
0
0
0
0
0
0
0
0
0
0
0
0
0
0
0
0
0
0
0
0
0
0
0
0
0
0
0
0
0
0
0
0
0
0
0
0
0
0
0
0
0
0
0
0
0
0
0
0
0
0
0
0
0
0
0
0
0
0
0
0
0
0
0
0
0
0
0
0
0
0
0
0
0
0
0
0
0
0
0
0
0
0
0
0
0
0
0
0
0
0
0
0
0
0
0
0
0
0
0
0
0
0
0
0
0
0
0
0
0
0
0
0
0
0
0
0
0
0
0
0
0
0
0
0
0
0
0
0
0
0
0
0
0
0
0
0
0
0
0
0
0
0
0
0
0
0
0
0
0
0
0
0
0
0
0
0
0
0
0
0
0
0
0
0
0
0
0
0
0
0
0
0
0
0
0
0
0
0
0
0
0
0
0
0
0
0
0
0
0
0
0
0
0
0
0
0
0
0
0
0
0
0
0
0
0
0
0
0
0
0
0
0
0
0
0
0
0
0
0
0
0
0
0
0
0
0
0
0
0
0
0
0
0
0
0
0
0
0
0
0
0
0
0
0
0
0
0
0
0
0
0
0
0
0
0
0
0
0
0
0
0
0
0
0
0
0
0
0
0
0
0
0
0
0
0
0
0
0
0
0
0
0
0
0
0
0
0
0
0
0
0
0
0
0
0
0
0
0
0
0
0
0
0
0
0
0
0
0
0
0
0
0
0
0
0
0
0
0
0
0
0
0
0
0
0
0
0
0
0
0
0
0
0
0
0
0
0
0
0
0
0
0
0
0
0
0
0
0
0
0
0
0
0
0
0
0
0
0
0
0
0
0
0
0
0
0
0
0
0
0
0
0
0
0
0
0
0
0
0
0
0
0
0
0
0
0
0
0
0
0
0
0
0
0
0
0
0
0
0
0
0
0
0
0
0
0
0
0
0
0
0
0
0
0
0
0
0
0
0
0
0
0
0
0
0
0
0
0
0
0
0
0
0
0
0
0
0
0
0
0
0
0
0
0
0
0
0
0
0
0
0
0
0
0
0
0
0
0
0
0
0
0
0
0
0
0
0
0
0
0
0
0
0
0
0
0
0
0
0
0
0
0
0
0
0
0
0
0
0
0
0
0
0
0
0
0
0
0
0
0
0
0
0
0
0
0
0
0
0
0
0
0
0
0
0
0
0
0
0
0
0
0
0
0
0
0
0
0
0
0
0
0
0
0
0
0
0
0
0
0
0
0
0
0
0
0
0
0
0
0
0
0
0
0
0
0
0
0
0
0
0
0
0
0
0
0
0
0
0
0
0
0
0
0
0
0
0
0
0
0
0
0
0
0
0
0
0
0
0
0
0
0
0
0
0
0
0
0
0
0
0
0
0
0
0
0
0
0
0
0
0
0
0
0
0
0
0
0
0
0
0
0
0
0
0
0
0
0
0
0
0
0
0
0
0
0
0
0
0
0
0
0
0
0
0
0
0
0
0
0
0
0
0
0
0
0
0
0
0
0
0
0
0
0
0
0
0
0
0
0
0
0
0
0
0
0
0
0
0
0
0
0
0
0
0
0
0
0
0
0
0
0
0
0
0
0
0
0
0
0
0
0
0
0
0
0
0
0
0
0
0
0
0
0
0
0
0
0
0
0
0
0
0
0
0
0
0
0
0
0
0
0
0
0
0
0
0
0
0
0
0
0
0
0
0
0
0
0
0
0
0
0
0
0
0
0
0
0
0
0
0
0
0
0
0
0
0
0
0
0
0
0
0
0
0
0
0
0
0
0
0
0
0
0
0
0
0
0
0
0
0
0
0
0
0
0
0
0
0
0
0
0
0
0
0
0
0
0
0
0
0
0
0
0
0
0
0
0
0
0
0
0
0
0
0
0
0
0
0
0
0
0
0
0
0
0
0
0
0
0
0
0
0
0
0
0
0
0
0
0
0
0
0
0
0
0
0
0
0
0
0
0
0
0
0
0
0
0
0
0
0
0
0
0
0
0
0
0
0
0
0
0
0
0
0
0
0
0
0
0
0
0
0
0
0
0
0
0
0
0
0
0
0
0
0
0
0
0
0
0
0
0
0
0
0
0
0
0
0
0
0
0
0
0
0
0
0
0
0
0
0
0
0
0
0
0
0
0
0
0
0
0
0
0
0
0
0
0
0
0
0
0
0
0
0
0
0
0
0
0
0
0
0
0
0
0
0
0
0
0
0
0
0
0
0
0
0
0
0
0
0
0
0
0
0
0
0
0
0
0
0
0
0
0
0
0
0
0
0
0
0
0
0
0
0
0
0
0
0
0
0
0
0
0
0
0
0
0
0
0
0
0
0
0
0
0
0
0
0
0
0
0
0
0
0
0
0
0
0
0
0
0
0
0
0
0
0
0
0
0
0
0
0
0
0
0
0
0
0
0
0
0
0
0
0
0
0
0
0
0
0
0
0
0
0
0
0
0
0
0
0
0
0
0
0
0
0
0
0
0
0
0
0
0
0
0
0
0
0
0
0
0
0
0
0
0
0
0
0
0
0
0
0
0
0
0
0
0
0
0
0
0
0
0
0
0
0
0
0
0
0
0
0
0
0
0
0
0
0
0
0
0
0
0
0
0
0
0
0
0
0
0
0
0
0
0
0
0
0
0
0
0
0
0
0
0
0
0
0
0
0
0
0
0
0
0
0
0
0
0
0
0
0
0
0
0
0
0
0
0
0
0
0
0
0
0
0
0
0
0
0
0
0
0
0
0
0
0
0
0
0
0
0
0
0
0
0
0
0
0
0
0
0
0
0
0
0
0
0
0
0
0
0
0
0
0
0
0
0
0
0
0
0
0
0
0
0
0
0
0
0
0
0
0
0
0
0
0
0
0
0
0
0
0
0
0
0
0
0
0
0
0
0
0
0
0
0
0
0
0
0
0
0
0
0
0
0
0
0
0
0
0
0
0
0
0
0
0
0
0
0
0
0
0
0
0
0
0
0
0
0
0
0
0
0
0
0
0
0
0
0
0
0
0
0
0
0
0
0
0
0
0
0
0
0
0
0
0
0
0
0
0
0
0
0
0
0
0
0
0
0
0
0
0
0
0
0
0
0
0
0
0
0
0
0
0
0
0
0
0
0
0
0
0
0
0
0
0
0
0
0
0
0
0
0
0
0
0
0
0
0
0
0
0
0
0
0
0
0
0
0
0
0
0
0
0
0
0
0
0
0
0
0
0
0
0
0
0
0
0
0
0
0
0
0
0
0
0
0
0
0
0
0
0
0
0
0
0
0
0
0
0
0
0
0
0
0
0
0
0
0
0
0
0
0
0
0
0
0
0
0
0
0
0
0
0
0
0
0
0
0
0
0
0
0
0
0
0
0
0
0
0
0
0
0
0
0
0
0
0
0
0
0
0
0
0
0
0
0
0
0
0
0
0
0
0
0
0
0
0
0
0
0
0
0
0
0
0
0
0
0
0
0
0
0
0
0
0
0
0
0
0
0
0
0
0
0
0
0
0
0
0
0
0
0
0
0
0
0
0
0
0
0
0
0
0
0
0
0
0
0
0
0
0
0
0
0
0
0
0
0
0
0
0
0
0
0
0
0
0
0
0
0
0
0
0
0
0
0
0
0
0
0
0
0
0
0
0
0
0
0
0
0
0
0
0
0
0
0
0
0
0
0
0
0
0
0
0
0
0
0
0
0
0
0
0
0
0
0
0
0
0
0
0
0
0
0
0
0
0
0
0
0
0
0
0
0
0
0
0
0
0
0
0
0
0
0
0
0
0
0
0
0
0
0
0
0
0
0
0
0
0
0
0
0
0
0
0
0
0
0
0
0
0
0
0
0
0
0
0
0
0
0
0
0
0
0
0
0
0
0
0
0
0
0
0
0
0
0
0
0
0
0
0
0
0
0
0
0
0
0
0
0
0
0
0
0
0
0
0
0
0
0
0
0
0
0
0
0
0
0
0
0
0
0
0
0
0
0
5.85655e+11
6.14575e+11
6.27917e+11
6.33367e+11
6.36098e+11
6.36918e+11
6.36638e+11
6.27007e+11
6.13281e+11
5.97797e+11
5.84777e+11
5.69425e+11
5.59175e+11
5.64629e+11
5.43912e+11
0
0
0
0
0
0
0
0
0
0
0
0
0
0
0
0
0
0
0
0
0
0
0
9.07232e+11
1.17173e+12
1.37725e+12
1.53334e+12
1.65723e+12
1.72938e+12
1.75934e+12
1.7682e+12
1.77305e+12
1.78066e+12
1.78246e+12
1.75362e+12
1.71244e+12
1.66995e+12
1.63524e+12
1.58829e+12
1.55757e+12
1.56106e+12
1.51385e+12
0
0
0
0
0
0
0
0
0
0
0
0
0
0
0
0
0
0
0
0
0
1.2487e+12
1.82687e+12
2.51338e+12
3.23954e+12
3.78712e+12
4.20719e+12
4.52292e+12
4.68639e+12
4.7557e+12
4.77956e+12
4.80063e+12
4.81962e+12
4.7983e+12
4.72363e+12
4.65044e+12
4.52706e+12
4.39738e+12
4.25892e+12
4.1771e+12
4.17965e+12
4.07066e+12
0
0
0
0
0
0
0
0
0
0
0
0
0
0
0
0
0
0
0
0
1.87201e+12
3.35079e+12
4.86977e+12
6.7172e+12
8.61032e+12
1.00019e+13
1.10695e+13
1.18318e+13
1.22196e+13
1.24228e+13
1.25247e+13
1.26012e+13
1.2609e+13
1.25029e+13
1.2333e+13
1.21468e+13
1.17747e+13
1.13705e+13
1.10284e+13
1.08503e+13
1.08449e+13
1.06101e+13
0
0
0
0
0
0
0
0
0
0
0
0
0
0
0
0
0
0
0
2.20283e+12
4.98585e+12
8.70388e+12
1.26016e+13
1.73253e+13
2.19942e+13
2.53948e+13
2.79431e+13
2.97543e+13
3.07826e+13
3.1357e+13
3.16677e+13
3.18331e+13
3.17931e+13
3.15121e+13
3.11435e+13
3.04375e+13
2.94845e+13
2.8589e+13
2.79396e+13
2.7471e+13
2.72978e+13
2.68066e+13
0
0
0
0
0
0
0
0
0
0
0
0
0
0
0
0
0
0
2.0831e+12
5.8318e+12
1.27885e+13
2.18261e+13
3.15971e+13
4.32031e+13
5.4217e+13
6.21906e+13
6.80993e+13
7.2389e+13
7.50006e+13
7.63433e+13
7.6989e+13
7.7424e+13
7.74311e+13
7.68999e+13
7.57411e+13
7.40244e+13
7.19722e+13
7.00761e+13
6.86535e+13
6.74162e+13
6.67155e+13
6.59183e+13
0
0
0
0
0
0
0
0
0
0
0
0
0
0
0
0
0
1.41948e+12
5.44682e+12
1.47819e+13
3.15828e+13
5.30324e+13
7.69338e+13
1.04292e+14
1.29181e+14
1.47221e+14
1.61023e+14
1.71248e+14
1.77333e+14
1.80192e+14
1.81598e+14
1.82704e+14
1.83092e+14
1.82074e+14
1.79358e+14
1.75322e+14
1.7099e+14
1.67018e+14
1.63852e+14
1.61258e+14
1.59581e+14
1.58046e+14
0
0
0
0
0
0
0
0
0
0
0
0
0
0
0
0
0
3.7288e+12
1.37367e+13
3.64231e+13
7.62429e+13
1.26573e+14
1.83527e+14
2.46134e+14
3.01125e+14
3.41327e+14
3.73123e+14
3.96544e+14
4.10217e+14
4.16672e+14
4.19949e+14
4.22225e+14
4.23349e+14
4.21392e+14
4.15255e+14
4.06254e+14
3.97095e+14
3.88805e+14
3.81717e+14
3.7573e+14
3.70936e+14
3.67503e+14
0
0
0
0
0
0
0
0
0
0
0
0
0
0
0
0
1.68749e+12
9.47097e+12
3.36709e+13
8.80303e+13
1.81094e+14
2.97374e+14
4.29753e+14
5.70951e+14
6.91535e+14
7.80433e+14
8.51397e+14
9.02056e+14
9.3086e+14
9.45107e+14
9.53072e+14
9.58621e+14
9.61255e+14
9.56553e+14
9.43004e+14
9.24472e+14
9.05665e+14
8.88197e+14
8.72e+14
8.57831e+14
8.46358e+14
8.3902e+14
0
0
0
0
0
0
0
0
0
0
0
0
0
0
0
0
4.41487e+12
2.34031e+13
8.08149e+13
2.08676e+14
4.20545e+14
6.81399e+14
9.82485e+14
1.29857e+15
1.56257e+15
1.75687e+15
1.91079e+15
2.01691e+15
2.07555e+15
2.10656e+15
2.12647e+15
2.14044e+15
2.145e+15
2.13162e+15
2.10259e+15
2.06678e+15
2.0289e+15
1.9909e+15
1.9539e+15
1.92158e+15
1.89692e+15
1.88218e+15
0
0
0
0
0
0
0
0
0
0
0
0
0
0
0
1.33221e+12
1.13592e+13
5.65983e+13
1.90984e+14
4.8428e+14
9.50286e+14
1.52391e+15
2.19737e+15
2.8907e+15
3.45832e+15
3.88074e+15
4.21315e+15
4.43453e+15
4.55332e+15
4.61964e+15
4.66548e+15
4.69783e+15
4.7032e+15
4.66784e+15
4.6086e+15
4.54052e+15
4.46351e+15
4.37986e+15
4.29645e+15
4.22599e+15
4.17611e+15
4.14846e+15
0
0
0
0
0
0
0
0
0
0
0
0
0
0
0
3.66298e+12
2.88178e+13
1.35247e+14
4.43852e+14
1.08683e+15
2.07617e+15
3.33799e+15
4.81264e+15
6.28274e+15
7.49044e+15
8.42113e+15
9.13202e+15
9.58713e+15
9.8277e+15
9.96595e+15
1.00606e+16
1.01262e+16
1.01282e+16
1.00473e+16
9.93179e+15
9.79932e+15
9.64e+15
9.45852e+15
9.2782e+15
9.1331e+15
9.03501e+15
8.98346e+15
0
0
0
0
0
0
0
0
0
0
0
0
0
0
0
9.84688e+12
7.06589e+13
3.21858e+14
1.02319e+15
2.38845e+15
4.49854e+15
7.26196e+15
1.03322e+16
1.33186e+16
1.58994e+16
1.79302e+16
1.94102e+16
2.03544e+16
2.08719e+16
2.11574e+16
2.13357e+16
2.14484e+16
2.14321e+16
2.12664e+16
2.10448e+16
2.07769e+16
2.04439e+16
2.00615e+16
1.96924e+16
1.94084e+16
1.92142e+16
1.91108e+16
0
0
0
0
0
0
0
0
0
0
0
0
0
0
2.06514e+12
2.51538e+13
1.69856e+14
7.52375e+14
2.27923e+15
5.14081e+15
9.71451e+15
1.56273e+16
2.17857e+16
2.77974e+16
3.318e+16
3.73252e+16
4.03045e+16
4.23341e+16
4.35195e+16
4.41241e+16
4.4458e+16
4.46526e+16
4.46058e+16
4.42851e+16
4.3847e+16
4.32899e+16
4.25978e+16
4.18226e+16
4.11074e+16
4.05716e+16
4.01805e+16
3.99548e+16
0
0
0
0
0
0
0
0
0
0
0
0
0
0
5.69152e+12
6.31593e+13
4.0748e+14
1.7287e+15
4.98358e+15
1.10641e+16
2.07536e+16
3.27889e+16
4.51874e+16
5.75432e+16
6.83678e+16
7.64112e+16
8.23769e+16
8.66267e+16
8.91111e+16
9.02943e+16
9.09175e+16
9.13402e+16
9.13406e+16
9.07488e+16
8.98539e+16
8.86807e+16
8.72523e+16
8.57301e+16
8.4398e+16
8.34005e+16
8.26099e+16
8.21146e+16
0
0
0
0
0
0
0
0
0
0
0
0
0
0
1.50869e+13
1.55446e+14
9.57273e+14
3.87812e+15
1.08551e+16
2.38881e+16
4.37685e+16
6.741e+16
9.25774e+16
1.17607e+17
1.38555e+17
1.54228e+17
1.66394e+17
1.7478e+17
1.79302e+17
1.81396e+17
1.82711e+17
1.83718e+17
1.83905e+17
1.829e+17
1.81171e+17
1.78738e+17
1.75814e+17
1.72896e+17
1.70451e+17
1.68566e+17
1.66978e+17
1.65955e+17
0
0
0
0
0
0
0
0
0
0
0
0
0
2.08683e+12
3.85474e+13
3.72495e+14
2.17158e+15
8.40987e+15
2.31728e+16
5.0459e+16
9.01704e+16
1.36632e+17
1.87234e+17
2.36296e+17
2.76383e+17
3.07702e+17
3.3173e+17
3.47049e+17
3.54508e+17
3.58723e+17
3.61785e+17
3.63799e+17
3.6416e+17
3.62688e+17
3.59618e+17
3.54674e+17
3.48819e+17
3.43302e+17
3.38705e+17
3.34976e+17
3.31799e+17
3.29854e+17
0
0
0
0
0
0
0
0
0
0
0
0
0
5.81499e+12
9.76543e+13
8.79532e+14
4.85063e+15
1.79733e+16
4.86102e+16
1.0398e+17
1.81751e+17
2.73219e+17
3.7206e+17
4.64864e+17
5.41642e+17
6.03572e+17
6.48775e+17
6.75602e+17
6.89461e+17
6.99579e+17
7.06512e+17
7.09909e+17
7.10444e+17
7.08468e+17
7.02813e+17
6.93011e+17
6.81852e+17
6.71446e+17
6.62416e+17
6.54842e+17
6.48642e+17
6.45275e+17
0
0
0
0
0
0
0
0
0
0
0
0
0
1.63498e+13
2.45894e+14
2.05432e+15
1.07133e+16
3.79856e+16
1.00421e+17
2.10069e+17
3.60268e+17
5.38539e+17
7.28049e+17
9.01394e+17
1.046e+18
1.16148e+18
1.24257e+18
1.29038e+18
1.32128e+18
1.34451e+18
1.3587e+18
1.36496e+18
1.36686e+18
1.36351e+18
1.35206e+18
1.33384e+18
1.31365e+18
1.29381e+18
1.27564e+18
1.26059e+18
1.24908e+18
1.24366e+18
0
0
0
0
0
0
0
0
0
0
0
0
1.67175e+12
4.48341e+13
6.08607e+14
4.75322e+15
2.3411e+16
7.94962e+16
2.04347e+17
4.16405e+17
7.03397e+17
1.04453e+18
1.39894e+18
1.7184e+18
1.98609e+18
2.1954e+18
2.33959e+18
2.43112e+18
2.49784e+18
2.54428e+18
2.57063e+18
2.58492e+18
2.59112e+18
2.58327e+18
2.56098e+18
2.52955e+18
2.4932e+18
2.45508e+18
2.41953e+18
2.39144e+18
2.37144e+18
2.36323e+18
0
0
0
0
0
0
0
0
0
0
0
0
5.04419e+12
1.17474e+14
1.474e+15
1.07545e+16
4.99537e+16
1.63396e+17
4.07798e+17
8.10415e+17
1.3579e+18
2.00202e+18
2.64734e+18
3.22368e+18
3.71369e+18
4.09534e+18
4.35934e+18
4.53696e+18
4.66218e+18
4.74214e+18
4.78824e+18
4.81883e+18
4.83082e+18
4.81452e+18
4.77781e+18
4.72499e+18
4.65827e+18
4.58732e+18
4.52215e+18
4.47313e+18
4.44015e+18
4.42812e+18
0
0
0
0
0
0
0
0
0
0
0
0
1.4174e+13
3.02753e+14
3.49002e+15
2.36407e+16
1.03925e+17
3.28469e+17
7.95263e+17
1.55067e+18
2.58191e+18
3.7697e+18
4.92718e+18
5.96464e+18
6.85532e+18
7.55179e+18
8.04476e+18
8.37724e+18
8.58979e+18
8.71635e+18
8.7936e+18
8.84764e+18
8.86537e+18
8.84046e+18
8.78688e+18
8.69474e+18
8.57351e+18
8.44826e+18
8.33464e+18
8.25019e+18
8.19297e+18
8.17126e+18
0
0
0
0
0
0
0
0
0
0
0
0
3.95324e+13
7.71466e+14
8.02228e+15
5.05084e+16
2.11904e+17
6.47713e+17
1.52488e+18
2.93199e+18
4.82305e+18
6.94856e+18
9.02669e+18
1.09111e+19
1.25058e+19
1.3749e+19
1.46498e+19
1.52494e+19
1.56031e+19
1.58079e+19
1.59345e+19
1.60131e+19
1.60406e+19
1.60135e+19
1.59304e+19
1.57657e+19
1.55544e+19
1.53386e+19
1.51435e+19
1.49964e+19
1.48899e+19
1.48401e+19
0
0
0
0
0
0
0
0
0
0
0
3.08383e+12
1.12973e+14
1.90347e+15
1.78633e+16
1.05328e+17
4.24681e+17
1.25537e+18
2.88371e+18
5.46587e+18
8.84289e+18
1.25847e+19
1.63196e+19
1.97158e+19
2.25179e+19
2.46843e+19
2.62706e+19
2.73176e+19
2.7921e+19
2.82628e+19
2.8464e+19
2.85776e+19
2.8638e+19
2.86091e+19
2.84633e+19
2.81866e+19
2.78367e+19
2.74649e+19
2.71277e+19
2.68661e+19
2.66626e+19
2.65477e+19
0
0
0
0
0
0
0
0
0
0
0
1.04996e+13
3.10458e+14
4.47785e+15
3.89671e+16
2.16799e+17
8.39704e+17
2.39246e+18
5.36668e+18
1.00087e+19
1.59497e+19
2.25128e+19
2.91181e+19
3.50834e+19
3.99405e+19
4.36794e+19
4.64114e+19
4.82129e+19
4.92594e+19
4.98141e+19
5.01174e+19
5.03039e+19
5.04354e+19
5.03818e+19
5.01304e+19
4.96928e+19
4.91207e+19
4.84868e+19
4.79103e+19
4.74418e+19
4.706e+19
4.6822e+19
0
0
0
0
0
0
0
0
0
0
0
3.36996e+13
7.69863e+14
1.03136e+16
8.37899e+16
4.41162e+17
1.62516e+18
4.46438e+18
9.82145e+18
1.80205e+19
2.8373e+19
3.98042e+19
5.12247e+19
6.14479e+19
6.97594e+19
7.6132e+19
8.0749e+19
8.38073e+19
8.5598e+19
8.65036e+19
8.70063e+19
8.736e+19
8.76184e+19
8.75454e+19
8.71585e+19
8.64526e+19
8.54969e+19
8.44336e+19
8.34539e+19
8.26236e+19
8.1937e+19
8.14995e+19
0
0
0
0
0
0
0
0
0
0
2.32026e+12
8.97514e+13
1.90257e+15
2.34818e+16
1.77881e+17
8.76806e+17
3.06229e+18
8.21831e+18
1.77545e+19
3.19494e+19
4.975e+19
6.94071e+19
8.88138e+19
1.06047e+20
1.20097e+20
1.30854e+20
1.38559e+20
1.43609e+20
1.46563e+20
1.48105e+20
1.49082e+20
1.49774e+20
1.50265e+20
1.50277e+20
1.49674e+20
1.48448e+20
1.46815e+20
1.45023e+20
1.43336e+20
1.41911e+20
1.40746e+20
1.40018e+20
0
0
0
0
0
0
0
0
0
0
6.48656e+12
2.43308e+14
4.63448e+15
5.2105e+16
3.65047e+17
1.67384e+18
5.67743e+18
1.49768e+19
3.15813e+19
5.57669e+19
8.60553e+19
1.19328e+20
1.51752e+20
1.80387e+20
2.03863e+20
2.21866e+20
2.34583e+20
2.42729e+20
2.47608e+20
2.5037e+20
2.52289e+20
2.53646e+20
2.5464e+20
2.54897e+20
2.53842e+20
2.51666e+20
2.48846e+20
2.45773e+20
2.42869e+20
2.40564e+20
2.38739e+20
2.37653e+20
0
0
0
0
0
0
0
0
0
0
1.99599e+13
6.28549e+14
1.07446e+16
1.12155e+17
7.12856e+17
3.13036e+18
1.04328e+19
2.67433e+19
5.50168e+19
9.59239e+19
1.46949e+20
2.02343e+20
2.55751e+20
3.02917e+20
3.41745e+20
3.71314e+20
3.91884e+20
4.05012e+20
4.13384e+20
4.1847e+20
4.21942e+20
4.24491e+20
4.26394e+20
4.26938e+20
4.25104e+20
4.21347e+20
4.16416e+20
4.11101e+20
4.06171e+20
4.02559e+20
3.99804e+20
3.98311e+20
0
0
0
0
0
0
0
0
0
0
5.67826e+13
1.48922e+15
2.418e+16
2.27202e+17
1.35191e+18
5.83346e+18
1.87871e+19
4.66652e+19
9.44235e+19
1.62953e+20
2.47471e+20
3.38214e+20
4.25314e+20
5.02485e+20
5.65893e+20
6.13468e+20
6.46391e+20
6.68042e+20
6.82363e+20
6.91648e+20
6.97503e+20
7.01806e+20
7.04977e+20
7.05825e+20
7.02951e+20
6.96659e+20
6.88235e+20
6.79368e+20
6.71317e+20
6.65611e+20
6.61312e+20
6.59207e+20
0
0
0
0
0
0
0
0
0
3.42046e+12
1.39562e+14
3.56924e+15
5.18127e+16
4.39823e+17
2.5689e+18
1.06784e+19
3.29727e+19
8.02023e+19
1.60259e+20
2.73364e+20
4.11075e+20
5.58004e+20
6.99119e+20
8.24035e+20
9.25818e+20
1.00156e+21
1.0548e+21
1.09056e+21
1.1132e+21
1.12932e+21
1.1387e+21
1.14551e+21
1.15036e+21
1.15137e+21
1.14669e+21
1.13618e+21
1.12264e+21
1.10873e+21
1.09612e+21
1.08683e+21
1.07972e+21
1.07631e+21
0
0
0
0
0
0
0
0
0
8.70491e+12
3.63127e+14
8.37127e+15
1.04079e+17
8.57505e+17
4.82984e+18
1.90682e+19
5.71378e+19
1.36376e+20
2.68485e+20
4.52474e+20
6.73948e+20
9.09217e+20
1.13502e+21
1.33375e+21
1.49477e+21
1.61565e+21
1.70249e+21
1.76007e+21
1.7928e+21
1.81959e+21
1.83451e+21
1.84516e+21
1.85199e+21
1.85269e+21
1.84447e+21
1.82775e+21
1.80766e+21
1.78687e+21
1.76761e+21
1.75227e+21
1.74026e+21
1.73406e+21
0
0
0
0
0
0
0
0
0
2.7469e+13
9.64827e+14
1.78775e+16
2.13617e+17
1.67955e+18
8.83806e+18
3.3658e+19
9.81274e+19
2.29264e+20
4.44304e+20
7.39447e+20
1.0918e+21
1.46402e+21
1.8186e+21
2.1288e+21
2.38073e+21
2.57194e+21
2.7089e+21
2.80007e+21
2.84918e+21
2.89022e+21
2.91193e+21
2.92854e+21
2.93691e+21
2.93661e+21
2.9228e+21
2.89848e+21
2.86988e+21
2.83915e+21
2.80984e+21
2.7847e+21
2.76471e+21
2.75304e+21
0
0
0
0
0
0
0
0
0
8.8475e+13
2.46051e+15
3.99761e+16
4.34915e+17
3.15168e+18
1.59147e+19
5.81884e+19
1.64981e+20
3.79453e+20
7.2329e+20
1.18923e+21
1.74413e+21
2.32513e+21
2.87226e+21
3.34946e+21
3.73789e+21
4.03247e+21
4.23886e+21
4.38029e+21
4.45923e+21
4.51773e+21
4.5476e+21
4.57253e+21
4.58222e+21
4.58095e+21
4.56098e+21
4.52837e+21
4.48768e+21
4.44236e+21
4.39802e+21
4.35887e+21
4.32744e+21
4.30695e+21
0
0
0
0
0
0
0
0
6.54237e+12
2.43473e+14
5.72537e+15
8.96601e+16
8.8206e+17
5.96439e+18
2.84888e+19
9.98721e+19
2.77132e+20
6.20504e+20
1.15628e+21
1.88469e+21
2.7474e+21
3.63703e+21
4.46949e+21
5.19474e+21
5.78037e+21
6.22045e+21
6.52432e+21
6.72905e+21
6.85598e+21
6.93677e+21
6.98054e+21
7.0122e+21
7.02387e+21
7.0219e+21
6.99748e+21
6.95393e+21
6.89338e+21
6.82622e+21
6.7597e+21
6.70338e+21
6.65794e+21
6.62629e+21
0
0
0
0
0
0
0
0
2.09339e+13
6.02954e+14
1.35869e+16
1.97266e+17
1.75684e+18
1.10693e+19
4.99447e+19
1.69829e+20
4.58215e+20
9.94888e+20
1.82956e+21
2.95779e+21
4.25982e+21
5.58811e+21
6.83438e+21
7.91042e+21
8.76689e+21
9.41102e+21
9.85772e+21
1.0138e+22
1.03368e+22
1.04442e+22
1.05138e+22
1.05467e+22
1.05639e+22
1.05654e+22
1.05396e+22
1.04759e+22
1.03828e+22
1.02844e+22
1.0188e+22
1.01146e+22
1.00546e+22
1.00128e+22
0
0
0
0
0
0
0
0
5.18129e+13
1.58832e+15
3.26973e+16
4.00903e+17
3.32594e+18
2.00066e+19
8.5837e+19
2.82611e+20
7.38524e+20
1.57495e+21
2.87245e+21
4.57049e+21
6.48085e+21
8.43604e+21
1.02617e+22
1.18049e+22
1.30166e+22
1.3929e+22
1.4573e+22
1.49608e+22
1.52425e+22
1.53791e+22
1.54806e+22
1.55186e+22
1.55537e+22
1.55596e+22
1.5525e+22
1.54199e+22
1.52779e+22
1.51355e+22
1.5002e+22
1.49152e+22
1.48418e+22
1.47956e+22
0
0
0
0
0
0
0
3.43779e+12
1.49098e+14
4.31201e+15
6.99349e+16
7.61854e+17
6.22935e+18
3.49506e+19
1.42973e+20
4.58632e+20
1.16872e+21
2.46103e+21
4.41658e+21
6.89005e+21
9.65484e+21
1.24697e+22
1.5044e+22
1.719e+22
1.88739e+22
2.01194e+22
2.09922e+22
2.15113e+22
2.18789e+22
2.20777e+22
2.22086e+22
2.22682e+22
2.23343e+22
2.2338e+22
2.228e+22
2.21131e+22
2.19096e+22
2.17067e+22
2.15274e+22
2.14293e+22
2.13458e+22
2.13065e+22
0
0
0
0
0
0
0
1.14403e+13
4.56128e+14
9.57284e+15
1.38393e+17
1.51667e+18
1.13395e+19
5.88644e+19
2.35708e+20
7.33571e+20
1.82208e+21
3.76697e+21
6.61672e+21
1.01628e+22
1.40959e+22
1.79901e+22
2.14647e+22
2.43584e+22
2.66259e+22
2.82537e+22
2.93578e+22
3.00266e+22
3.04635e+22
3.07493e+22
3.08964e+22
3.09885e+22
3.10767e+22
3.10606e+22
3.0956e+22
3.07229e+22
3.04552e+22
3.01786e+22
2.99429e+22
2.98236e+22
2.97269e+22
2.97037e+22
0
0
0
0
0
0
0
3.94124e+13
1.01877e+15
2.01725e+16
2.99089e+17
2.93542e+18
1.95205e+19
9.92601e+19
3.84457e+20
1.14939e+21
2.78686e+21
5.62573e+21
9.67005e+21
1.46409e+22
2.00176e+22
2.51639e+22
2.96774e+22
3.34005e+22
3.62606e+22
3.82692e+22
3.96142e+22
4.04475e+22
4.09293e+22
4.12901e+22
4.14571e+22
4.15973e+22
4.16949e+22
4.16489e+22
4.14762e+22
4.11906e+22
4.08581e+22
4.05012e+22
4.01987e+22
4.00376e+22
3.99119e+22
3.98948e+22
0
0
0
0
0
0
2.81583e+12
8.91047e+13
2.45195e+15
4.83642e+16
6.12869e+17
5.25034e+18
3.42834e+19
1.66937e+20
6.12868e+20
1.77709e+21
4.19451e+21
8.23241e+21
1.38452e+22
2.05555e+22
2.75444e+22
3.40561e+22
3.96629e+22
4.41378e+22
4.74504e+22
4.97617e+22
5.13168e+22
5.22666e+22
5.27177e+22
5.31174e+22
5.33169e+22
5.35033e+22
5.35635e+22
5.34926e+22
5.32543e+22
5.29457e+22
5.25511e+22
5.21272e+22
5.17574e+22
5.15438e+22
5.13768e+22
5.1342e+22
0
0
0
0
0
0
6.53701e+12
2.47951e+14
6.44412e+15
1.00857e+17
1.12813e+18
9.59904e+18
5.89443e+19
2.69888e+20
9.58131e+20
2.6888e+21
6.13444e+21
1.17154e+22
1.92338e+22
2.78336e+22
3.644e+22
4.42405e+22
5.075e+22
5.57461e+22
5.93256e+22
6.17452e+22
6.3276e+22
6.4292e+22
6.47223e+22
6.51479e+22
6.53618e+22
6.55372e+22
6.54824e+22
6.54406e+22
6.51659e+22
6.48472e+22
6.43878e+22
6.39128e+22
6.34612e+22
6.31773e+22
6.29392e+22
6.28355e+22
0
0
0
0
0
0
2.14082e+13
6.8908e+14
1.28733e+16
1.93374e+17
2.16623e+18
1.68205e+19
9.63657e+19
4.27592e+20
1.46045e+21
3.94744e+21
8.72539e+21
1.61903e+22
2.57905e+22
3.62449e+22
4.62869e+22
5.49931e+22
6.193e+22
6.71174e+22
7.08356e+22
7.32073e+22
7.44604e+22
7.53845e+22
7.57143e+22
7.61767e+22
7.63151e+22
7.63522e+22
7.61884e+22
7.62127e+22
7.59403e+22
7.56576e+22
7.52255e+22
7.48025e+22
7.43413e+22
7.40579e+22
7.3785e+22
7.36056e+22
0
0
0
0
0
0
5.53075e+13
1.26775e+15
2.54715e+16
3.72303e+17
3.68951e+18
2.69955e+19
1.52307e+20
6.44516e+20
2.11782e+21
5.56373e+21
1.19317e+22
2.14128e+22
3.29642e+22
4.49812e+22
5.59628e+22
6.48943e+22
7.1556e+22
7.62254e+22
7.93496e+22
8.11495e+22
8.18836e+22
8.24489e+22
8.25876e+22
8.29432e+22
8.29008e+22
8.277e+22
8.25766e+22
8.25199e+22
8.22083e+22
8.18886e+22
8.15069e+22
8.1158e+22
8.07404e+22
8.05243e+22
8.02413e+22
7.99884e+22
0
0
0
0
0
3.55482e+12
9.89635e+13
2.62289e+15
5.01267e+16
6.08941e+17
5.75792e+18
4.24501e+19
2.26852e+20
9.20658e+20
2.97072e+21
7.58071e+21
1.57487e+22
2.72521e+22
4.03912e+22
5.3201e+22
6.41355e+22
7.25362e+22
7.85426e+22
8.25186e+22
8.49283e+22
8.62515e+22
8.68576e+22
8.74229e+22
8.76673e+22
8.78833e+22
8.78318e+22
8.77481e+22
8.76597e+22
8.75834e+22
8.74065e+22
8.71463e+22
8.69076e+22
8.66716e+22
8.6304e+22
8.60852e+22
8.5831e+22
8.55268e+22
0
0
0
0
0
6.70959e+12
2.22604e+14
5.26755e+15
7.72525e+16
9.31588e+17
8.92106e+18
6.17285e+19
3.14289e+20
1.27492e+21
4.00453e+21
9.87461e+21
1.97895e+22
3.28475e+22
4.69214e+22
6.00417e+22
7.05821e+22
7.73556e+22
8.09484e+22
8.28045e+22
8.32393e+22
8.31662e+22
8.23846e+22
8.15985e+22
8.1041e+22
8.07553e+22
8.05556e+22
8.04177e+22
8.03275e+22
8.02382e+22
8.01575e+22
8.00509e+22
8.0075e+22
8.01054e+22
8.00336e+22
8.01628e+22
8.00644e+22
7.99184e+22
0
0
0
0
0
1.60661e+13
4.59423e+14
7.82214e+15
1.18204e+17
1.47536e+18
1.29216e+19
8.27329e+19
4.30634e+20
1.71026e+21
5.14982e+21
1.23246e+22
2.38941e+22
3.83952e+22
5.32434e+22
6.54152e+22
7.22528e+22
7.47358e+22
7.5478e+22
7.53096e+22
7.48067e+22
7.40236e+22
7.29478e+22
7.19504e+22
7.12481e+22
7.08417e+22
7.05884e+22
7.04478e+22
7.0371e+22
7.02684e+22
7.02845e+22
7.01989e+22
7.02812e+22
7.03162e+22
7.03247e+22
7.04326e+22
7.04542e+22
7.03623e+22
0
0
0
0
0
3.21286e+13
6.23096e+14
1.22456e+16
1.98122e+17
2.19733e+18
1.74315e+19
1.15013e+20
5.84759e+20
2.20347e+21
6.46532e+21
1.51026e+22
2.82498e+22
4.33654e+22
5.62867e+22
6.34686e+22
6.61814e+22
6.70752e+22
6.64466e+22
6.49329e+22
6.29042e+22
6.08879e+22
5.91319e+22
5.78701e+22
5.70206e+22
5.6489e+22
5.62016e+22
5.60376e+22
5.59927e+22
5.59286e+22
5.60471e+22
5.60207e+22
5.61898e+22
5.62548e+22
5.63247e+22
5.64985e+22
5.65905e+22
5.658e+22
0
0
0
0
2.04332e+12
4.59932e+13
1.1079e+15
2.26017e+16
3.05518e+17
2.97382e+18
2.49084e+19
1.61257e+20
7.65617e+20
2.82717e+21
8.15173e+21
1.83207e+22
3.20844e+22
4.50523e+22
5.35034e+22
5.71845e+22
5.76838e+22
5.64435e+22
5.38173e+22
5.0577e+22
4.72663e+22
4.44195e+22
4.23273e+22
4.09493e+22
4.00325e+22
3.94636e+22
3.91692e+22
3.90006e+22
3.89977e+22
3.8978e+22
3.91277e+22
3.91722e+22
3.93777e+22
3.95105e+22
3.96344e+22
3.98497e+22
3.99943e+22
4.00259e+22
0
0
0
0
2.82723e+12
8.24975e+13
2.08878e+15
3.28072e+16
3.97306e+17
4.31903e+18
3.56034e+19
2.11214e+20
9.90155e+20
3.62522e+21
1.00068e+22
2.10085e+22
3.3247e+22
4.23109e+22
4.70275e+22
4.81314e+22
4.60001e+22
4.27368e+22
3.86289e+22
3.43679e+22
3.06285e+22
2.77822e+22
2.58132e+22
2.4508e+22
2.36702e+22
2.31604e+22
2.28906e+22
2.2732e+22
2.272e+22
2.27165e+22
2.28286e+22
2.29153e+22
2.31016e+22
2.32778e+22
2.34206e+22
2.36261e+22
2.37705e+22
2.38098e+22
0
0
0
0
5.47882e+12
1.46487e+14
2.71267e+15
4.24607e+16
5.98027e+17
6.17004e+18
4.59026e+19
2.75684e+20
1.31305e+21
4.59026e+21
1.17321e+22
2.21344e+22
3.11959e+22
3.61374e+22
3.75583e+22
3.64114e+22
3.29615e+22
2.82349e+22
2.34848e+22
1.94108e+22
1.63389e+22
1.42206e+22
1.27664e+22
1.17931e+22
1.12029e+22
1.08539e+22
1.06527e+22
1.05287e+22
1.04953e+22
1.04879e+22
1.0531e+22
1.06119e+22
1.07455e+22
1.08889e+22
1.09981e+22
1.11495e+22
1.1256e+22
1.12852e+22
0
0
0
0
6.59776e+12
1.40442e+14
2.94846e+15
5.47536e+16
7.38204e+17
6.93087e+18
5.37372e+19
3.32705e+20
1.51423e+21
5.03106e+21
1.19064e+22
2.02275e+22
2.60163e+22
2.78561e+22
2.68355e+22
2.40833e+22
1.99914e+22
1.53521e+22
1.14693e+22
8.66213e+21
6.79379e+21
5.58853e+21
4.80655e+21
4.2985e+21
3.98765e+21
3.80773e+21
3.69945e+21
3.63068e+21
3.60089e+21
3.5911e+21
3.59807e+21
3.63778e+21
3.69727e+21
3.7679e+21
3.81845e+21
3.89685e+21
3.95564e+21
3.97328e+21
0
0
0
0
5.07866e+12
1.38802e+14
3.11832e+15
5.3098e+16
7.28147e+17
7.81294e+18
6.3447e+19
3.85873e+20
1.72426e+21
5.383e+21
1.10035e+22
1.60095e+22
1.8344e+22
1.82309e+22
1.64111e+22
1.32621e+22
9.56485e+21
6.41482e+21
4.18201e+21
2.82034e+21
2.02312e+21
1.55564e+21
1.27585e+21
1.10014e+21
9.91561e+20
9.31351e+20
8.95616e+20
8.72162e+20
8.58892e+20
8.53004e+20
8.52395e+20
8.63045e+20