/*--------------------------------*- C++ -*----------------------------------*\
| =========                 |                                                 |
| \\      /  F ield         | OpenFOAM: The Open Source CFD Toolbox           |
|  \\    /   O peration     | Version:  2406                                  |
|   \\  /    A nd           | Website:  www.openfoam.com                      |
|    \\/     M anipulation  |                                                 |
\*---------------------------------------------------------------------------*/
FoamFile
{
    version     2.0;
    format      ascii;
    arch        "LSB;label=32;scalar=64";
    class       volScalarField;
    location    "0.109";
    object      Knudsen_droplet;
}
// * * * * * * * * * * * * * * * * * * * * * * * * * * * * * * * * * * * * * //

dimensions      [0 0 0 0 0 0 0];

internalField   nonuniform List<scalar> 
8988
(
0
0
0
0
0
0
0
0
0
0
0
0
0
0
0
0
0
0
0
0
0
0
0
0
0
0
0
0
0
0
0
0
0
0
0
0
0
0
0
0
0
0
0
0
0
0
0
0
0
0
0
0
0
0
0
0
0
0
0
0
0
0
0
0
0
0
0
0
0
0
0
0
0
0
0
0
0
0
0
0
0
0
0
0
0
0
0
0
0
0
0
0
0
0
0
0
0
0
0
0
0
0
0
0
0
0
0
0
0
0
0
0
0
0
0
0
0
0
0
0
0
0
0
0
0
0
0
0
0
0
0
0
0
0
0
0
0
0
0
0
0
0
0
0
0
0
0
0
0
0
0
0
0
0
0
0
0
0
0
0
0
0
0
0
0
0
0
0
0
0
0
0
0
0
0
0
0
0
0
0
0
0
0
0
0
0
0
0
0
0
0
0
0
0
0
0
0
0
0
0
0
0
0
0
0
0
0
0
0
0
0
0
0
0
0
0
0
0
0
0
0
0
0
0
0
0
0
0
0
0
0
0
0
0
0
0
0
0
0
0
0
0
0
0
0
0
0
0
0
0
0
0
0
0
0
0
0
0
0
0
0
0
0
0
0
0
0
0
0
0
0
0
0
0
0
0
0
0
0
0
0
0
0
0
0
0
0
0
0
0
0
0
0
0
0
0
0
0
0
0
0
0
0
0
0
0
0
0
0
0
0
0
0
0
0
0
0
0
0
0
0
0
0
0
0
0
0
0
0
0
0
0
0
0
0
0
0
0
0
0
0
0
0
0
0
0
0
0
0
0
0
0
0
0
0
0
0
0
0
0
0
0
0
0
0
0
0
0
0
0
0
0
0
0
0
0
0
0
0
0
0
0
0
0
0
0
0
0
0
0
0
0
0
0
0
0
0
0
0
0
0
0
0
0
0
0
0
0
0
0
0
0
0
0
0
0
0
0
0
0
0
0
0
0
0
0
0
0
0
0
0
0
0
0
0
0
0
0
0
0
0
0
0
0
0
0
0
0
0
0
0
0
0
0
0
0
0
0
0
0
0
0
0
0
0
0
0
0
0
0
0
0
0
0
0
0
0
0
0
0
0
0
0
0
0
0
0
0
0
0
0
0
0
0
0
0
0
0
0
0
0
0
0
0
0
0
0
0
0
0
0
0
0
0
0
0
0
0
0
0
0
0
0
0
0
0
0
0
0
0
0
0
0
0
0
0
0
0
0
0
0
0
0
0
0
0
0
0
0
0
0
0
0
0
0
0
0
0
0
0
0
0
0
0
0
0
0
0
0
0
0
0
0
0
0
0
0
0
0
0
0
0
0
0
0
0
0
0
0
0
0
0
0
0
0
0
0
0
0
0
0
0
0
0
0
0
0
0
0
0
0
0
0
0
0
0
0
0
0
0
0
0
0
0
0
0
0
0
0
0
0
0
0
0
0
0
0
0
0
0
0
0
0
0
0
0
0
0
0
0
0
0
0
0
0
0
0
0
0
0
0
0
0
0
0
0
0
0
0
0
0
0
0
0
0
0
0
0
0
0
0
0
0
0
0
0
0
0
0
0
0
0
0
0
0
0
0
0
0
0
0
0
0
0
0
0
0
0
0
0
0
0
0
0
0
0
0
0
0
0
0
0
0
0
0
0
0
0
0
0
0
0
0
0
0
0
0
0
0
0
0
0
0
0
0
0
0
0
0
0
0
0
0
0
0
0
0
0
0
0
0
0
0
0
0
0
0
0
0
0
0
0
0
0
0
0
0
0
0
0
0
0
0
0
0
0
0
0
0
0
0
0
0
0
0
0
0
0
0
0
0
0
0
0
0
0
0
0
0
0
0
0
0
0
0
0
0
0
0
0
0
0
0
0
0
0
0
0
0
0
0
0
0
0
0
0
0
0
0
0
0
0
0
0
0
0
0
0
0
0
0
0
0
0
0
0
0
0
0
0
0
0
0
0
0
0
0
0
0
0
0
0
0
0
0
0
0
0
0
0
0
0
0
0
0
0
0
0
0
0
0
0
0
0
0
0
0
0
0
0
0
0
0
0
0
0
0
0
0
0
0
0
0
0
0
0
0
0
0
0
0
0
0
0
0
0
0
0
0
0
0
0
0
0
0
0
0
0
0
0
0
0
0
0
0
0
0
0
0
0
0
0
0
0
0
0
0
0
0
0
0
0
0
0
0
0
0
0
0
0
0
0
0
0
0
0
0
0
0
0
0
0
0
0
0
0
0
0
0
0
0
0
0
0
0
0
0
0
0
0
0
0
0
0
0
0
0
0
0
0
0
0
0
0
0
0
0
0
0
0
0
0
0
0
0
0
0
0
0
0
0
0
0
0
0
0
0
0
0
0
0
0
0
0
0
0
0
0
0
0
0
0
0
0
0
0
0
0
0
0
0
0
0
0
0
0
0
0
0
0
0
0
0
0
0
0
0
0
0
0
0
0
0
0
0
0
0
0
0
0
0
0
0
0
0
0
0
0
0
0
0
0
0
0
0
0
0
0
0
0
0
0
0
0
0
0
0
0
0
0
0
0
0
0
0
0
0
0
0
0
0
0
0
0
0
0
0
0
0
0
0
0
0
0
0
0
0
0
0
0
0
0
0
0
0
0
0
0
0
0
0
0
0
0
0
0
0
0
0
0
0
0
0
0
0
0
0
0
0
0
0
0
0
0
0
0
0
0
0
0
0
0
0
0
0
0
0
0
0
0
0
0
0
0
0
0
0
0
0
0
0
0
0
0
0
0
0
0
0
0
0
0
0
0
0
0
0
0
0
0
0
0
0
0
0
0
0
0
0
0
0
0
0
0
0
0
0
0
0
0
0
0
0
0
0
0
0
0
0
0
0
0
0
0
0
0
0
0
0
0
0
0
0
0
0
0
0
0
0
0
0
0
0
0
0
0
0
0
0
0
0
0
0
0
0
0
0
0
0
0
0
0
0
0
0
0
0
0
0
0
0
0
0
0
0
0
0
0
0
0
0
0
0
0
0
0
0
0
0
0
0
0
0
0
0
0
0
0
0
0
0
0
0
0
0
0
0
0
0
0
0
0
0
0
0
0
0
0
0
0
0
0
0
0
0
0
0
0
0
0
0
0
0
0
0
0
0
0
0
0
0
0
0
0
0
0
0
0
0
0
0
0
0
0
0
0
0
0
0
0
0
0
0
0
0
0
0
0
0
0
0
0
0
0
0
0
0
0
0
0
0
0
0
0
0
0
0
0
0
0
0
0
0
0
0
0
0
0
0
0
0
0
0
0
0
0
0
0
0
0
0
0
0
0
0
0
0
0
0
0
0
0
0
0
0
0
0
0
0
0
0
0
0
0
0
0
0
0
0
0
0
0
0
0
0
0
0
0
0
0
0
0
0
0
0
0
0
0
0
0
0
0
0
0
0
0
0
0
0
0
0
0
0
0
0
0
0
0
0
0
0
0
0
0
0
0
0
0
0
0
0
0
0
0
0
0
0
0
0
0
0
0
0
0
0
0
0
0
0
0
0
0
0
0
0
0
0
0
0
0
0
0
0
0
0
0
0
0
0
0
0
0
0
0
0
0
0
0
0
0
0
0
0
0
0
0
0
0
0
0
0
0
0
0
0
0
0
0
0
0
0
0
0
0
0
0
0
0
0
0
0
0
0
0
0
0
0
0
0
0
0
0
0
0
0
0
0
0
0
0
0
0
0
0
0
0
0
0
0
0
0
0
0
0
0
0
0
0
0
0
0
0
0
0
0
0
0
0
0
0
0
0
0
0
0
0
0
0
0
0
0
0
0
0
0
0
0
0
0
0
0
0
0
0
0
0
0
0
0
0
0
0
0
0
0
0
0
0
0
0
0
0
0
0
0
0
0
0
0
0
0
0
0
0
0
0
0
0
0
0
0
0
0
0
0
0
0
0
0
0
0
0
0
0
0
0
0
0
0
0
0
0
0
0
0
0
0
0
0
0
0
0
0
0
0
0
0
0
0
0
0
0
0
0
0
0
0
0
0
0
0
0
0
0
0
0
0
0
0
0
0
0
0
0
0
0
0
0
0
0
0
0
0
0
0
0
0
0
0
0
0
0
0
0
0
0
0
0
0
0
0
0
0
0
0
0
0
0
0
0
0
0
0
0
0
0
0
0
0
0
0
0
0
0
0
0
0
0
0
0
0
0
0
0
0
0
0
0
0
0
0
0
0
0
0
0
0
0
0
0
0
0
0
0
0
0
0
0
0
0
0
0
0
0
0
0
0
0
0
0
0
0
0
0
0
0
0
0
0
0
0
0
0
0
0
0
0
0
0
0
0
0
0
0
0
0
0
0
0
0
0
0
0
0
0
0
0
0
0
0
0
0
0
0
0
0
0
0
0
0
0
0
0
0
0
0
0
0
0
0
0
0
0
0
0
0
0
0
0
0
0
0
0
0
0
0
0
0
0
0
0
0
0
0
0
0
0
0
0
0
0
0
0
0
0
0
0
0
0
0
0
0
0
0
0
0
0
0
0
0
0
0
0
0
0
0
0
0
0
0
0
0
0
0
0
0
0
0
0
0
0
0
0
0
0
0
0
0
0
0
0
0
0
0
0
0
0
0
0
0
0
0
0
0
0
0
0
0
0
0
0
0
0
0
0
0
0
0
0
0
0
0
0
0
0
0
0
0
0
0
0
0
0
0
0
0
0
0
0
0
0
0
0
0
0
0
0
0
0
0
0
0
0
0
0
0
0
0
0
0
0
0
0
0
0
0
0
0
0
0
0
0
0
0
0
0
0
0
0
0
0
0
0
0
0
0
0
0
0
0
0
0
0
0
0
0
0
0
0
0
0
0
0
0
0
0
0
0
0
0
0
0
0
0
0
0
0
0
0
0
0
0
0
0
0
0
0
0
0
0
0
0
0
0
0
0
0
0
0
0
0
0
0
0
0
0
0
0
0
0
0
0
0
0
0
0
0
0
0
0
0
0
0
0
0
0
0
0
0
0
0
0
0
0
0
0
0
0
0
0
0
0
0
0
0
0
0
0
0
0
0
0
0
0
0
0
0
0
0
0
0
0
0
0
0
0
0
0
0
0
0
0
0
0
0
0
0
0
0
0
0
0
0
0
0
0
0
0
0
0
0
0
0
0
0
0
0
0
0
0
0
0
0
0
0
0
0
0
0
0
0
0
0
0
0
0
0
0
0
0
0
0
0
0
0
0
0
0
0
0
0
0
0
0
0
0
0
0
0
0
0
0
0
0
0
0
0
0
0
0
0
0
0
0
0
0
0
0
0
0
0
0
0
0
0
0
0
0
0
0
0
0
0
0
0
0
0
0
0
0
0
0
0
0
0
0
0
0
0
0
0
0
0
0
0
0
0
0
0
0
0
0
0
0
0
0
0
0
0
0
0
0
0
0
0
0
0
0
0
0
0
0
0
0
0
0
0
0
0
0
0
0
0
0
0
0
0
0
0
0
0
0
0
0
0
0
0
0
0
0
0
0
0
0
0
0
0
0
0
0
0
0
0
0
0
0
0
0
0
0
0
0
0
0
0
0
0
0
0
0
0
0
0
0
0
0
0
0
0
0
0
0
0
0
0
0
0
0
0
0
0
0
0
0
0
0
0
0
0
0
0
0
0
0
0
0
0
0
0
0
0
0
0
0
0
0
0
0
0
0
0
0
0
0
0
0
0
0
0
0
0
0
0
0
0
0
0
0
0
0
0
0
0
0
0
0
0
0
0
0
0
0
0
0
0
0
0
0
0
0
0
0
0
0
0
0
0
0
0
0
0
0
0
0
0
0
0
0
0
0
0
0
0
0
0
0
0
0
0
0
0
0
0
0
0
0
0
0
0
0
0
0
0
0
0
0
0
0
0
0
0
0
0
0
0
0
0
0
0
0
0
0
0
0
0
0
0
0
0
0
0
0
0
0
0
0
0
0
0
0
0
0
0
0
0
0
0
0
0
0
0
0
0
0
0
0
0
0
0
0
0
0
0
0
0
0
0
0
0
0
0
0
0
0
0
0
0
0
0
0
0
0
0
0
0
0
0
0
0
0
0
0
0
0
0
0
0
0
0
0
0
0
0
0
0
0
0
0
0
0
0
0
0
0
0
0
0
0
0
0
0
0
0
0
0
0
0
0
0
0
0
0
0
0
0
0
0
0
0
0
0
0
0
0
0
0
0
0
0
0
0
0
0
0
0
0
0
0
0
0
0
0
0
0
0
0
0
0
0
0
0
0
0
0
0
0
0
0
0
0
0
0
0
0
0
0
0
0
0
0
0
0
0
0
0
0
0
0
0
0
0
0
0
0
0
0
0
0
0
0
0
0
0
0
0
0
0
0
0
0
0
0
0
0
0
0
0
0
0
0
0
0
0
0
0
0
0
0
0
0
0
0
0
0
0
0
0
0
0
0
0
0
0
0
0
0
0
0
0
0
0
0
0
0
0
0
0
0
0
0
0
0
0
0
0
0
0
0
0
0
0
0
0
0
0
0
0
0
0
0
0
0
0
0
0
0
0
0
0
0
0
0
0
0
0
0
0
0
0
0
0
0
0
0
0
0
0
0
0
0
0
0
0
0
0
0
0
0
0
0
0
0
0
0
0
0
0
0
0
0
0
0
0
0
0
0
0
0
0
0
0
0
0
0
0
0
0
0
0
0
0
0
0
0
0
0
0
0
0
0
0
0
0
0
0
0
0
0
0
0
0
0
0
0
0
0
0
0
0
0
0
0
0
0
0
0
0
0
0
0
0
0
0
0
0
0
0
0
0
0
0
0
0
0
0
0
0
0
0
0
0
0
0
0
0
0
0
0
0
0
0
0
0
0
0
0
0
0
0
0
0
0
0
0
0
0
0
0
0
0
0
0
0
0
0
0
0
0
0
0
0
0
0
0
0
0
0
0
0
0
0
0
0
0
0
0
0
0
0
0
0
0
0
0
0
0
0
0
0
0
0
0
0
0
0
0
0
0
0
0
0
0
0
0
0
0
0
0
0
0
0
0
0
0
0
0
0
0
0
0
0
0
0
0
0
0
0
0
0
0
0
0
0
0
0
0
0
0
0
0
0
0
0
0
0
0
0
0
0
0
0
0
0
0
0
0
0
0
0
0
0
0
0
0
0
0
0
0
0
0
0
0
0
0
0
0
0
0
0
0
0
0
0
0
0
0
0
0
0
0
0
0
0
0
0
0
0
0
0
0
0
0
0
0
0
0
0
0
0
0
0
0
0
0
0
0
0
0
0
0
0
0
0
0
0
0
0
0
0
0
0
0
0
0
0
0
0
0
0
0
0
0
0
0
0
0
0
0
0
0
0
0
0
0
0
0
0
0
0
0
0
0
0
0
0
0
0
0
0
0
0
0
0
0
0
0
0
0
0
0
0
0
0
0
0
0
0
0
0
0
0
0
0
0
0
0
0
0
0
0
0
0
0
0
0
0
0
0
0
0
0
0
0
0
0
0
0
0
0
0
0
0
0
0
0
0
0
0
0
0
0
0
0
0
0
0
0
0
0
0
0
0
0
0
0
0
0
0
0
0
0
0
0
0
0
0
0
0
0
0
0
0
0
0
0
0
0
0
0
0
0
0
0
0
0
0
0
0
0
0
0
0
0
0
0
0
0
0
0
0
0
0
0
0
0
0
0
0
0
0
0
0
0
0
0
0
0
0
0
0
0
0
0
0
0
0
0
0
0
0
0
0
0
0
0
0
0
0
0
0
0
0
0
0
0
0
0
0
0
0
0
0
0
0
0
0
0
0
0
0
0
0
0
0
0
0
0
0
0
0
0
0
0
0
0
0
0
0
0
0
0
0
0
0
0
0
0
0
0
0
0
0
0
0
0
0
0
0
0
0
0
0
0
0
0
0
0
0
0
0
0
0
0
0
0
0
0
0
0
0
0
0
0
0
0
0
0
0
0
0
0
0
0
0
0
0
0
0
0
0
0
0
0
0
0
0
0
0
0
0
0
0
0
0
0
0
0
0
0
0
0
0
0
0
0
0
0
0
0
0
0
0
0
0
0
0
0
0
0
0
0
0
0
0
0
0
0
0
0
0
0
0
0
0
0
0
0
0
0
0
0
0
0
0
0
0
0
0
0
0
0
0
0
0
0
0
0
0
0
0
0
0
0
0
0
0
0
0
0
0
0
0
0
0
0
0
0
0
0
0
0
0
0
0
0
0
0
0
0
0
0
0
0
0
0
0
0
0
0
0
0
0
0
0
0
0
0
0
0
0
0
0
0
0
0
0
0
0
0
0
0
0
0
0
0
0
0
0
0
0
0
0
0
0
0
0
0
0
0
0
0
0
0
0
0
0
0
0
0
0
0
0
0
0
0
0
0
0
0
0
0
0
0
0
0
0
0
0
0
0
0
0
0
0
0
0
0
0
0
0
0
0
0
0
0
0
0
0
0
0
0
0
0
0
0
0
0
0
0
0
0
0
0
0
0
0
0
0
0
0
0
0
0
0
0
0
0
0
0
0
0
0
0
0
0
0
0
0
0
0
0
0
0
0
0
0
0
0
0
0
0
0
0
0
0
0
0
0
0
0
0
0
0
0
0
0
0
0
0
0
0
0
0
0
0
0
0
0
0
0
0
0
0
0
0
0
0
0
0
0
0
0
0
0
0
0
0
0
0
0
0
0
0
0
0
0
0
0
0
0
0
0
0
0
0
0
0
0
0
0
0
0
0
0
0
0
0
0
0
0
0
0
0
0
0
0
0
0
0
0
0
0
0
0
0
0
0
0
0
0
0
0
0
0
0
0
0
0
0
0
0
0
0
0
0
0
0
0
0
0
0
0
0
0
0
0
0
0
0
0
0
0
0
0
0
0
0
0
0
0
0
0
0
0
0
0
0
0
0
0
0
0
0
0
0
0
0
0
0
0
0
0
0
0
0
0
0
0
0
0
0
0
0
0
0
0
0
0
0
0
0
0
0
0
0
0
0
0
0
0
0
0
0
0
0
0
0
0
0
0
0
0
0
0
0
0
0
0
0
0
0
0
0
0
0
0
0
0
0
0
0
0
0
0
0
0
0
0
0
0
0
0
0
0
0
0
0
0
0
0
0
0
0
0
0
0
0
0
0
0
0
0
0
0
0
0
0
0
0
0
0
0
0
0
0
0
0
0
0
0
0
0
0
0
0
0
0
0
0
0
0
0
0
0
0
0
0
6912.9
6890.83
6877.96
6869.33
6865.97
6936.98
6928.55
6927.89
6929.15
6931.67
6934.72
6938.64
6944.39
6951.1
6955.54
6944.62
6936.71
0
0
0
0
0
0
0
0
0
0
0
0
0
0
0
0
0
0
0
0
0
0
6982.5
6953.55
6936.07
7056.21
7024.91
7005.96
6993.8
6987.19
6982.93
6980.31
6978.05
6975.71
6972.68
6967.83
6962.09
6952.85
6942.68
6931.15
6923.31
6914.73
0
0
0
0
0
0
0
0
0
0
0
0
0
0
0
0
0
0
0
0
0
6987.66
6959.57
7078.82
7047.59
7034.81
7031.86
7030.91
7029.19
7028.35
7029.47
7032.18
7034.75
7038.16
7041.2
7037.52
7032.4
7031.37
7031.59
7032.3
7033.07
7033.84
0
0
0
0
0
0
0
0
0
0
0
0
0
0
0
0
0
0
0
0
6952.14
7136.58
7098.49
7068.14
7044.15
7028.59
7019.08
7013.82
7010.32
7008.41
7007.98
7008.33
7008.8
7009.14
7009.55
7010.42
7012.25
7015.93
7018.76
7021.5
7018.44
7012.3
0
0
0
0
0
0
0
0
0
0
0
0
0
0
0
0
0
0
0
6813.72
7095.73
7092.15
7071.93
7061.08
7060.06
7064.38
7068.9
7072.28
7078.81
7089.29
7077.72
7064.9
7058.7
7052.41
7046.34
7039.72
7030.52
7019.02
7005.68
6992.74
6984.13
6976.23
0
0
0
0
0
0
0
0
0
0
0
0
0
0
0
0
0
0
6500.14
6925.76
7025.65
7072.25
7109.22
7143.54
7143.07
7100.11
7076.2
7061.2
7051.61
7045.15
7043.3
7042.38
7041.32
7040.84
7039.24
7036.82
7032.66
7027.17
7020.53
7013.35
7005.69
6998.3
0
0
0
0
0
0
0
0
0
0
0
0
0
0
0
0
0
0
6292.74
6764.28
7009.18
7171.65
7193.12
7140.8
7122.45
7097.41
7077.17
7065.06
7057.34
7052.1
7048.85
7046
7043.68
7041.69
7040.53
7040.84
7042.99
7045.47
7045.75
7040.41
7028.27
7022.84
0
0
0
0
0
0
0
0
0
0
0
0
0
0
0
0
0
0
6472.42
6696.13
7166.26
7197.65
7163.21
7123.18
7105.27
7135.48
7096.86
7076.9
7063.92
7055.41
7052
7049.77
7048.71
7048.33
7047.6
7045.07
7041.8
7036.51
7028.97
7020.3
7012.81
7004.39
0
0
0
0
0
0
0
0
0
0
0
0
0
0
0
0
0
6721.22
6600.32
6941.33
7153.09
7159.77
7149.75
7159.53
7131.35
7107.19
7086.9
7075.25
7068.67
7064.72
7062.24
7060.39
7058.81
7058.14
7058.01
7061.51
7065.42
7063.67
7053.22
7041.03
7031.85
7026.93
0
0
0
0
0
0
0
0
0
0
0
0
0
0
0
0
0
6198.54
6904.93
6956.88
7085.47
7251.79
7181.12
7136.84
7155.02
7117.79
7105.2
7105.71
7090.6
7081.47
7075.57
7071.14
7068.13
7066.07
7065.36
7066.07
7066.97
7069.34
7071.96
7069.7
7059.81
7051.29
0
0
0
0
0
0
0
0
0
0
0
0
0
0
0
0
0
5523.65
7002.69
6813.07
7209.45
7181.5
7210.01
7167.98
7130.27
7129.34
7109.81
7109.22
7098.95
7088.94
7082.62
7077.79
7074.64
7072.46
7072.17
7073.22
7075.4
7078.63
7078.91
7072.83
7060.47
7053.27
0
0
0
0
0
0
0
0
0
0
0
0
0
0
0
0
0
5727.83
6798.05
6818.93
7114.53
7226.25
7175.97
7172.92
7148.85
7130.81
7110.82
7109.34
7095.29
7089.82
7089.04
7089.81
7098.13
7093.44
7094.03
7099.56
7085.14
7087.22
7098.9
7093.9
7088.8
7100.72
0
0
0
0
0
0
0
0
0
0
0
0
0
0
0
0
0
6910.97
6938.96
6880.75
7187.4
7233.43
7180.96
7159.75
7168.77
7175.92
7181.48
7184.77
7185.77
7185.36
7184.44
7183.32
7181.77
7179.51
7176.53
7173.16
7169.86
7166.76
7163.96
7161.56
7159.71
7158.51
0
0
0
0
0
0
0
0
0
0
0
0
0
0
0
0
7782.33
7946.52
7101.82
7019.19
7245.49
7238.55
7257.71
7271.63
7281.18
7287.81
7292.93
7295.89
7296.69
7296.22
7295.3
7294.08
7292.41
7290.08
7287.11
7283.85
7280.63
7277.55
7274.67
7272.18
7270.26
7269.13
0
0
0
0
0
0
0
0
0
0
0
0
0
0
0
0
7890.77
8041.52
6874.8
7253.46
7319.7
7353.04
7374.66
7390.36
7400.52
7407.06
7411.78
7414.28
7414.73
7414.13
7413.16
7411.81
7409.95
7407.51
7404.62
7401.52
7398.34
7395.2
7392.23
7389.69
7387.8
7386.73
0
0
0
0
0
0
0
0
0
0
0
0
0
0
0
0
8036.14
6807.82
7213.95
7372.25
7439.49
7473.87
7497.12
7513.71
7524.25
7530.96
7535.57
7537.75
7537.93
7537.22
7536.14
7534.64
7532.58
7530.04
7527.21
7524.21
7521.01
7517.76
7514.71
7512.19
7510.35
7509.34
0
0
0
0
0
0
0
0
0
0
0
0
0
0
0
0
8262.8
7638.85
7305.49
7486.33
7560.59
7598.77
7623.51
7640.36
7651.14
7658.19
7662.75
7664.77
7664.87
7664.1
7662.92
7661.26
7659.07
7656.46
7653.65
7650.64
7647.38
7644.03
7640.95
7638.48
7636.68
7635.67
0
0
0
0
0
0
0
0
0
0
0
0
0
0
0
0
8545.26
7073.48
7488
7627
7690.48
7727.65
7752.26
7769.27
7780.83
7788.34
7792.83
7794.83
7795
7794.18
7792.81
7790.98
7788.69
7786.03
7783.18
7780.07
7776.7
7773.3
7770.26
7767.88
7766.07
7765.01
0
0
0
0
0
0
0
0
0
0
0
0
0
0
0
0
8566.19
7080.95
7583.72
7751.98
7822.78
7860.57
7883.92
7900.64
7912.61
7920.24
7924.85
7927.21
7927.66
7926.84
7925.34
7923.43
7921.11
7918.4
7915.44
7912.19
7908.71
7905.29
7902.32
7900
7898.13
7896.97
0
0
0
0
0
0
0
0
0
0
0
0
0
0
0
0
7170.26
7434.11
7755.63
7889.49
7956.89
7994.82
8018.43
8035.51
8047.27
8054.58
8059.27
8061.85
8062.37
8061.53
8060.09
8058.29
8056.02
8053.26
8050.18
8046.75
8043.17
8039.75
8036.85
8034.54
8032.61
8031.39
0
0
0
0
0
0
0
0
0
0
0
0
0
0
0
8083.03
7334.59
7684.99
7928.21
8036.19
8095.75
8131.61
8155.77
8173.16
8184.49
8191.63
8196.41
8198.79
8199
8198.08
8196.85
8195.24
8193.07
8190.36
8187.22
8183.66
8179.98
8176.58
8173.71
8171.39
8169.43
8168.23
0
0
0
0
0
0
0
0
0
0
0
0
0
0
0
8902.32
7523.04
7882.68
8090.15
8184.46
8237.93
8271.84
8296.14
8313.33
8324.34
8331.56
8336.11
8337.95
8337.73
8336.89
8335.83
8334.28
8332.2
8329.64
8326.53
8322.9
8319.17
8315.75
8312.84
8310.43
8308.47
8307.34
0
0
0
0
0
0
0
0
0
0
0
0
0
0
0
9018.82
7719.85
8048.54
8241.63
8330.9
8381.34
8414.32
8438.27
8454.99
8466.05
8473.48
8477.74
8479.14
8478.9
8478.32
8477.26
8475.59
8473.53
8471.07
8467.99
8464.38
8460.68
8457.24
8454.21
8451.69
8449.74
8448.72
0
0
0
0
0
0
0
0
0
0
0
0
0
0
0
9157.11
7949.94
8218.95
8393.16
8477.95
8526.64
8559.28
8582.76
8598.87
8609.75
8616.98
8620.9
8622.23
8622.46
8622.12
8620.97
8619.18
8617.09
8614.62
8611.58
8608.1
8604.5
8600.99
8597.82
8595.21
8593.27
8592.33
0
0
0
0
0
0
0
0
0
0
0
0
0
0
8927.97
8411.3
8154.12
8386.32
8545.82
8626.47
8673.84
8706.12
8728.94
8744.53
8755.21
8762.15
8765.87
8767.47
8768.12
8767.85
8766.65
8764.87
8762.76
8760.21
8757.23
8753.89
8750.34
8746.79
8743.54
8740.93
8739.01
8738.11
0
0
0
0
0
0
0
0
0
0
0
0
0
0
9238.12
8561.38
8351.97
8549.34
8697.86
8776.34
8823.68
8855.62
8877.42
8892.39
8902.92
8909.72
8913.38
8915.1
8915.67
8915.19
8913.93
8912.22
8910.07
8907.51
8904.64
8901.38
8897.86
8894.36
8891.2
8888.72
8886.88
8886.01
0
0
0
0
0
0
0
0
0
0
0
0
0
0
9487.38
7567.74
8477.68
8721.02
8854.84
8928.64
8975.48
9006.97
9028.02
9042.68
9053.12
9059.82
9063.47
9065.04
9065.14
9064.28
9062.91
9061.16
9058.97
9056.5
9053.74
9050.51
9047.05
9043.7
9040.72
9038.38
9036.59
9035.68
0
0
0
0
0
0
0
0
0
0
0
0
0
0
9580.98
6752.71
8554.31
8894.11
9017.9
9085.29
9129.56
9159.8
9180.62
9195.35
9205.55
9212.03
9215.58
9216.88
9216.49
9215.25
9213.65
9211.72
9209.52
9207.14
9204.42
9201.21
9197.84
9194.62
9191.78
9189.51
9187.66
9186.61
0
0
0
0
0
0
0
0
0
0
0
0
0
9573.06
9611.13
7281.99
8702.9
9056.41
9178.86
9243.59
9285.42
9314.33
9335.12
9349.82
9359.56
9365.65
9368.98
9369.99
9369.31
9367.8
9365.95
9363.87
9361.73
9359.37
9356.67
9353.54
9350.25
9347.06
9344.25
9341.95
9339.98
9338.76
0
0
0
0
0
0
0
0
0
0
0
0
0
9610.57
9072.71
7867.42
8885.98
9217.32
9338.67
9402.45
9442.8
9470.83
9491.31
9505.61
9514.87
9520.58
9523.59
9524.36
9523.48
9521.7
9519.6
9517.44
9515.3
9512.89
9510.23
9507.19
9503.93
9500.72
9497.89
9495.51
9493.45
9492.11
0
0
0
0
0
0
0
0
0
0
0
0
0
9921.25
9192.6
8312.65
9075.64
9379.89
9499.08
9562.05
9601.51
9628.89
9648.65
9662.26
9671.01
9676.3
9678.98
9679.54
9678.55
9676.6
9674.44
9672.31
9670.17
9667.77
9665.13
9662.09
9658.82
9655.58
9652.7
9650.25
9648.16
9646.81
0
0
0
0
0
0
0
0
0
0
0
0
0
9924.66
9332.34
8666.13
9264.09
9544.49
9660.94
9722.62
9761.31
9788.1
9807
9819.83
9828.06
9832.93
9835.23
9835.54
9834.43
9832.49
9830.45
9828.44
9826.35
9823.97
9821.23
9818.07
9814.7
9811.36
9808.38
9805.9
9803.84
9802.54
0
0
0
0
0
0
0
0
0
0
0
0
9917.31
9988.72
9505.63
8964.66
9450.85
9710.79
9823.69
9883.98
9922.04
9948.1
9966.03
9978.05
9985.79
9990.29
9992.23
9992.21
9991.06
9989.26
9987.41
9985.57
9983.58
9981.2
9978.3
9975
9971.47
9968.02
9964.95
9962.54
9960.57
9959.37
0
0
0
0
0
0
0
0
0
0
0
0
9962.99
9543.76
9676.01
9229.55
9636.31
9877.54
9986.85
10046.3
10083.8
10108.9
10125.8
10137
10144.2
10148.2
10149.7
10149.5
10148.4
10146.8
10145
10143.3
10141.4
10139
10136
10132.6
10128.9
10125.3
10122.1
10119.8
10117.9
10116.9
0
0
0
0
0
0
0
0
0
0
0
0
10266.2
9680.89
9849.01
9473.96
9820.04
10044.6
10151
10209.6
10246.2
10270.1
10286.1
10296.6
10303.1
10306.5
10307.6
10307.2
10306.1
10304.6
10303
10301.3
10299.4
10297
10294
10290.5
10286.7
10283.1
10280
10277.6
10275.8
10274.8
0
0
0
0
0
0
0
0
0
0
0
0
10321.5
9854.11
10053.4
9710.64
10002.9
10212.4
10316.4
10373.9
10409.2
10432
10447
10456.7
10462.4
10465.1
10465.8
10465.3
10463.8
10462.4
10460.7
10458.9
10456.9
10454.4
10451.4
10447.9
10444.3
10440.8
10437.7
10435.4
10433.4
10432.3
0
0
0
0
0
0
0
0
0
0
0
0
9877.92
9997.6
9176.61
9882.26
10195.1
10385.5
10483.5
10538.8
10572.7
10594.2
10608.1
10616.7
10621.4
10623.4
10623.9
10623.1
10621
10619.5
10617.7
10615.7
10613.5
10610.9
10607.8
10604.5
10601.1
10597.8
10594.9
10592.5
10590.5
10589.3
0
0
0
0
0
0
0
0
0
0
0
10352.1
10014.4
10164.5
8256.59
9999.52
10392.7
10564.5
10653.1
10704.5
10736.3
10756.4
10768.7
10775.8
10779.5
10780.8
10780.5
10779.3
10776.9
10775.2
10773
10770.8
10768.3
10765.6
10762.5
10759.3
10756.2
10753
10750.2
10747.8
10745.8
10744.4
0
0
0
0
0
0
0
0
0
0
0
10640.2
10182.2
10351.8
7849.64
10100.3
10584
10745.1
10823.7
10869.8
10899
10917.1
10927.5
10933.1
10935.5
10935.8
10934.6
10932.9
10930.3
10928.2
10925.7
10923.3
10920.6
10917.9
10914.8
10911.7
10908.6
10905.5
10902.8
10900.5
10898.6
10897.2
0
0
0
0
0
0
0
0
0
0
0
10231.1
10377.8
10589
8594.24
10285
10761.2
10919.2
10991.9
11034
11060.4
11075.8
11084.1
11087.9
11088.7
11087.6
11085.2
11082.5
11079.8
11077.2
11074.5
11071.8
11069
11066.3
11063.4
11060.2
11056.9
11053.8
11051
11049
11047.4
11046.2
0
0
0
0
0
0
0
0
0
0
0
10361.6
10574.6
10792.7
9236.21
10496
10937.1
11088.8
11157.9
11196.6
11218.7
11230.8
11236.7
11238.2
11236.9
11234.2
11230.7
11226.8
11223.8
11220.8
11217.9
11215
11212.3
11209.7
11206.7
11203.4
11199.8
11196.6
11193.9
11192.2
11191
11190.1
0
0
0
0
0
0
0
0
0
0
10697.3
10527.5
10771
10992.1
9748.76
10713.3
11112.4
11256.6
11322.3
11355.9
11373
11381.5
11384.2
11382.6
11378.7
11373.9
11369.1
11364
11360.4
11356.7
11353.7
11350.7
11348.2
11345.5
11342.4
11338.8
11335.1
11331.8
11329.1
11327.7
11326.7
11326.2
0
0
0
0
0
0
0
0
0
0
10706.1
10717.2
10970.5
11189
10177.4
10929.2
11285.8
11421.3
11481.2
11508.8
11521.1
11525.3
11523.7
11518.5
11511.6
11504.4
11497.7
11491.2
11486.4
11482.4
11479.2
11476.3
11473.8
11470.9
11467.8
11463.9
11460.2
11456.9
11454.3
11453
11452.1
11451.8
0
0
0
0
0
0
0
0
0
0
10713.7
10917.1
11167.8
11385.5
10560.6
11144.2
11457
11580.6
11632.9
11654.5
11661.7
11660.1
11653.1
11643.4
11632.9
11622.4
11613.1
11605
11598.6
11594.1
11590.6
11587.5
11584.7
11581.5
11578.3
11574.4
11570.9
11567.6
11565
11563.8
11562.9
11562.7
0
0
0
0
0
0
0
0
0
0
10857.7
11112.4
11361.7
11584
10910.5
11355.3
11623
11731.5
11774.8
11789.6
11789.8
11781.2
11767.8
11752.7
11737.3
11722.8
11710.4
11700.3
11692.3
11687.1
11683
11679.5
11676.3
11672.8
11669.3
11665.7
11662.4
11659.2
11656.8
11655.6
11654.6
11654.4
0
0
0
0
0
0
0
0
0
0
11034.7
11305.9
11565.2
11808.9
11241.6
11563
11782.1
11872.5
11905.4
11911.1
11902.2
11885
11863.9
11841.6
11819.8
11800.2
11784.1
11771.4
11761.4
11754.9
11750
11745.9
11742
11738.5
11734.8
11731.6
11728.4
11725.6
11723.6
11722.5
11721.7
11721.4
0
0
0
0
0
0
0
0
0
0
11224.7
11502.6
11713.1
10567
11462.2
11768.7
11933.2
11999.7
12018.7
12012.5
11992.3
11964.8
11934
11902.7
11873.4
11847.7
11826.5
11810.7
11798.6
11790.6
11784.4
11779.5
11775
11771.4
11767.6
11764.6
11761.7
11759.2
11757.4
11756.7
11756
11755.6
0
0
0
0
0
0
0
0
0
11174
11417.8
11693.3
11886.5
9096.06
11565.9
11972.5
12081.5
12114.1
12112.1
12090
12056
12015.4
11972.3
11930.2
11892
11859.1
11831.7
11812
11797.1
11787.1
11779.2
11773.4
11768.3
11764.7
11760.9
11758.3
11755.9
11754.2
11753
11752.9
11752.7
11752.4
0
0
0
0
0
0
0
0
0
11313.3
11589.9
11873.1
12137.9
10258.5
11782.7
12125.4
12198.8
12202.3
12176.8
12135.5
12084.4
12027.6
11969.4
11914
11864.4
11822.3
11788
11763.2
11744.9
11732.5
11723.1
11716.4
11710.8
11706.6
11702.7
11700
11698.1
11697.2
11696.6
11697.3
11697.6
11697.5
0
0
0
0
0
0
0
0
0
11457.2
11755.6
12043.3
12301.2
11148
12021.1
12255.6
12287.6
12260.7
12209.1
12144.7
12072.2
11995.7
11919.7
11848.4
11784.9
11731.9
11689.5
11659
11637.1
11622.4
11612.1
11604.9
11599.2
11594.5
11590.7
11588.2
11587.2
11587
11587.3
11588.8
11589.8
11590.1
0
0
0
0
0
0
0
0
0
11613.8
11916
12196.4
12450.3
11843.4
12254.6
12361.5
12342.2
12280.3
12199.2
12107.5
12009.1
11908.8
11812
11722
11642.8
11577.2
11525.8
11488.5
11462.5
11445
11433.3
11425.4
11419.3
11414.4
11410.9
11408.6
11408.5
11409.2
11410.5
11413
11414.9
11415.8
0
0
0
0
0
0
0
0
11550.8
11760.9
12057
12335.5
12594.7
12382.9
12460.2
12437.3
12359.2
12256.6
12140.9
12017.3
11890.1
11762.8
11640
11527.4
11429.9
11350.2
11288
11242.6
11211.5
11191.1
11177.9
11169.1
11162.7
11157.7
11154.5
11152.4
11152.9
11154.5
11157
11160.6
11163.5
11165.2
0
0
0
0
0
0
0
0
11637.4
11885.5
12186.5
12476.2
12730.3
12805.4
12633
12478.1
12330.3
12179.7
12025.2
11866.4
11703.9
11543
11391.3
11255.8
11140.2
11046.2
10973.4
10920.7
10884.7
10861.1
10846.1
10836.3
10829.6
10824.6
10821.7
10819.9
10820.8
10822.9
10826.3
10830.8
10834.6
10836.8
0
0
0
0
0
0
0
0
11723.8
12004.8
12319.2
12600.7
12793.9
13130.2
12769.5
12477.5
12248.3
12041.4
11841.2
11639.2
11437.4
11243.1
11064.9
10908.1
10775.4
10668.2
10586.5
10528
10487.9
10461.5
10444.9
10434
10426.8
10421.3
10418.4
10416.9
10418.1
10420.9
10425.3
10430.7
10435.2
10437.9
0
0
0
0
0
0
0
0
11807.6
12122.2
12434.7
12767.1
13078.7
13460.7
12813.4
12401.1
12093.4
11826.9
11576
11329.1
11087.4
10866.2
10665.9
10491.4
10344.6
10226.5
10136.9
10072.7
10028.6
9999.92
9982.18
9970.77
9963.5
9958.15
9955.16
9953.93
9955.07
9957.53
9961.58
9966.86
9971.65
9974.81
0
0
0
0
0
0
0
0
11905.7
12217.6
12520.2
12793.5
13203.8
12965
12751.9
12232
11851.8
11523
11220.5
10933.3
10664.9
10420.1
10204.3
10019.5
9867.74
9750.93
9664.46
9600.39
9557.23
9528.51
9509.52
9496.35
9487.04
9479.74
9474.76
9472.52
9473.54
9477.32
9483.43
9489.99
9494.29
9496.35
0
0
0
0
0
0
0
0
11955.8
12263.8
12580.4
12857.1
13157.9
12323.9
12623.3
11970.9
11514.8
11132.7
10783.5
10463.6
10177
9924.26
9707.76
9527.54
9382.34
9262.42
9166.29
9102.32
9060.3
9033.19
9015.34
9002.73
8993.76
8986.98
8982.16
8979.72
8979.17
8981.12
8985.22
8991.1
8996.06
8999.24
0
0
0
0
0
0
0
0
11965.7
12285.5
12606.4
12805.3
12999.1
9946.94
12388.9
11606
11075.1
10643.8
10266
9935.31
9649.7
9408.65
9205.99
9039.26
8901.08
8787.5
8701.89
8642.47
8603.26
8577.7
8560.82
8548.72
8539.49
8532.18
8526.27
8522.56
8520.36
8520.48
8522.74
8527.65
8532.15
8535.46
0
0
0
0
0
0
0
0
11948.6
12257
12585.7
12959.4
12794.3
13562.9
12013.6
11131.9
10538.7
10074.6
9695.27
9377.91
9117.43
8902.88
8725.84
8579.73
8456.65
8356.73
8282.52
8230.14
8195.29
8172.55
8157.29
8146.12
8137.06
8129.4
8122.41
8117.17
8113.28
8111.36
8111.34
8114.47
8117.64
8120.37
0
0
0
0
0
0
0
0
11897.9
12196.4
12522.7
12731.6
12448.5
13348.7
11489.7
10549
9931
9469.68
9111.83
8834
8614.54
8436.91
8291.99
8170.96
8066.37
7980.71
7917.43
7872.54
7842.7
7823.07
7809.55
7799.43
7790.91
7783.36
7775.98
7769.65
7764.48
7760.84
7758.81
7759.99
7761.59
7763.41
0
0
0
0
0
0
0
0
11852.9
12109
12433.5
12508.3
10023.1
12740.8
10840.4
9890.21
9288.32
8865.94
8557.71
8333.57
8162.45
8027.37
7916.2
7820.6
7734.82
7663.13
7609.98
7572.21
7546.81
7529.9
7518.15
7509.05
7501.13
7493.81
7486.38
7479.51
7473.83
7469.14
7465.81
7465.61
7466.11
7467.19
0
0
0
0
0
0
0
0
0
11980.5
12367.7
12312.8
9921.65
11956.8
10123.6
9214.78
8663.36
8302.6
8058.45
7891.98
7772.05
7677.83
7598.32
7526.89
7458.43
7399.15
7355.6
7324.67
7303.55
7289.59
7279.9
7272.12
7265.11
7258.37
7251.3
7244.35
7238.65
7233.42
7229.26
7228.06
7227.83
7228.45
0
0
0
0
0
0
0
0
0
11867.5
12209.3
9848.33
10183.2
11044
9394.14
8573.28
8093.62
7804.89
7630.19
7520.7
7446.08
7388.19
7337.44
7286.46
7232.49
7184.53
7149.35
7124.3
7107.22
7095.83
7087.89
7081.95
7076.65
7071.04
7064.83
7058.42
7053.22
7048.07
7043.61
7041.89
7041.26
7041.64
0
0
0
0
0
0
0
0
0
11771.8
10484
10089.5
10333.6
10116.3
8702.38
7998.08
7601.2
7384.51
7274.41
7215.13
7180.25
7156.12
7129.73
7093.75
7052.57
7015.57
6986.9
6966.19
6952.21
6943.07
6937.25
6933.25
6929.49
6925.25
6920.39
6914.96
6910.5
6905.78
6901.4
6899.74
6899.02
6899.43
0
0
0
0
0
0
0
0
0
11688.7
9927.21
10207.7
12247.4
9251.83
8073.35
7495.23
7186.92
7040.04
6983.95
6967.48
6970.88
6975.08
6966.22
6944.09
6915.27
6886.68
6862.69
6845.4
6833.84
6826.58
6822.44
6819.97
6817.54
6814.64
6810.98
6806.47
6802.86
6798.74
6794.56
6793.26
6793.02
6793.7
0
0
0
0
0
0
0
0
0
11578.8
9815.21
10381.2
11048.4
8478.56
7530.42
7070.63
6843.55
6759.95
6750.41
6775.54
6812
6835.2
6841.56
6834.17
6815.76
6793.07
6772.55
6757.01
6746.59
6740.64
6737.78
6736.21
6734.5
6732.23
6729.16
6725.23
6722.42
6719.11
6715.65
6715.17
6715.76
6716.92
0
0
0
0
0
0
0
0
0
11545.1
9839.41
10340.5
9797.27
7811.43
7060.87
6711.79
6564.92
6537.11
6568.45
6631.66
6692.2
6730.53
6751.92
6757.25
6747.46
6729.95
6711.78
6696.91
6686.77
6680.97
6678.35
6677.14
6675.58
6673.2
6670.06
6666.22
6663.54
6660.54
6657.59
6657.67
6658.92
6660.55
0
0
0
0
0
0
0
0
0
11590.6
9755.71
10180.9
8708.62
7251.87
6668.21
6414.71
6340.68
6361.63
6430.34
6524.43
6601.84
6654.65
6690.65
6706.87
6703.85
6690.42
6674.14
6659.67
6649.24
6643.05
6640.17
6638.85
6637.05
6633.98
6630.05
6625.49
6621.99
6618.38
6615.22
6614.93
6616.03
6617.61
549.7
610.043
0
0
0
0
7699.82
11090.3
11457.2
11733.2
10339.7
10726.1
7834.67
6782.2
6342.82
6176.49
6165.19
6225.02
6325.79
6443.52
6534.7
6602.38
6651.61
6675.9
6678.43
6669.18
6654.85
6640.28
6628.89
6621.85
6618.18
6616.16
6613.93
6610.27
6605.31
6599.5
6594.54
6589.51
6585.21
6583.47
6583.37
6584.26
532.267
591.605
0
0
0
679.059
10008.9
6811.98
8749.79
11517.9
10786.8
9174.91
7136.83
6381.07
6071.05
5988.14
6029.37
6120.46
6247.11
6383.17
6487.74
6568.8
6627.81
6658.71
6667.08
6661.7
6648.63
6633.66
6621.28
6613.11
6608.3
6605.23
6602.11
6597.58
6591.45
6584.15
6577.58
6570.95
6565.3
6561.98
6560.42
6560.4
531.432
593.953
0
0
0
0
10855.6
10712.4
10840.6
11910.8
10846.8
8144.78
6576.07
6037.19
5841.02
5833.04
5920.86
6040.03
6187.4
6337.64
6454.6
6547.22
6614.58
6652.14
6666.11
6663.7
6651.43
6636.19
6622.86
6613.28
6606.96
6602.6
6598.42
6592.94
6585.78
6577.21
6569.29
6561.46
6554.67
6550.1
6547.42
6546.63
629.153
553.251
0
0
0
4813.41
4645.41
7180.55
9739.2
10359
11287.7
7226.78
6139.69
5755.79
5650.54
5699.43
5827.95
5977.14
6144.22
6302.44
6430.29
6534.22
6608.76
6652.22
6670.99
6671.04
6659.74
6644.57
6630.46
6619.57
6612.02
6606.63
6601.49
6595.17
6587.18
6577.58
6568.82
6560.05
6552.54
6547.18
6543.69
6542.31
1511.5
1694.32
0
0
1934.76
2380.8
3921.52
6485.13
9243.26
8232.3
8400.51
6457.46
5762.59
5523.52
5492.91
5585.98
5744.7
5927.03
6110.46
6272.89
6413.37
6527.02
6607.13
6656.44
6679.31
6681.76
6671.95
6656.98
6642.17
6630.37
6622.02
6616.04
6610.35
6603.52
6594.97
6584.83
6575.86
6566.64
6558.58
6552.68
6548.69
6546.92
2054.84
0
0
0
2100.85
2058.04
3841.76
6214.74
8781.33
3238.4
6986.63
5836.17
5436.77
5322.04
5359.33
5491.61
5674.33
5885.4
6080.39
6251.19
6402.65
6523.19
6609.2
6663.74
6690.16
6695.2
6686.76
6672.24
6657.36
6645.2
6636.36
6629.88
6623.82
6616.89
6608.3
6598.09
6589.02
6579.52
6571.11
6564.89
6560.68
6558.66
0
0
0
0
1244.72
2558.26
4780.76
7552.27
9572.94
12261.3
6145.26
5368.82
5154.03
5139.01
5243.47
5414.12
5624.88
5848.75
6054.13
6237.47
6395.28
6521.51
6613.8
6672.74
6702.79
6710.25
6702.79
6688.73
6674.26
6662.52
6653.75
6647.1
6641.05
6634.42
6626.21
6616.37
6607.62
6598.6
6590.68
6584.49
6580.06
6577.98
0
0
0
5437.51
1577.14
2907.67
6864.18
8983.86
10234.9
6774.77
5438.47
5030.61
4937.79
4989.8
5145.23
5356.46
5588.28
5821.44
6037.92
6228.5
6392.01
6523.85
6620.45
6683.61
6717.06
6726.34
6719.94
6706.8
6693.1
6681.72
6673.04
6666.55
6661.02
6655.04
6647.51
6638.45
6630.47
6621.98
6614
6607.6
6603.21
6601.13
0
0
0
318.091
3988.55
7590.53
9279.88
10163.3
10717.6
5319.75
4923.56
4765.19
4764.94
4878.05
5076
5311.9
5557.97
5804.93
6030.03
6223.56
6391.75
6529.37
6630.52
6696.36
6731.87
6743.24
6738.85
6726.79
6713.25
6701.61
6693.09
6687.28
6682.6
6677.46
6670.84
6662.81
6655.58
6647.77
6640.49
6634.81
6630.95
6629.16
0
0
536.953
547.28
3594.69
5910.27
7403.76
8922.14
11827.1
4638.28
4555.16
4552.67
4633.16
4803.35
5028.34
5274.32
5538.25
5795.64
6024.72
6223.49
6395.43
6536.79
6642
6710.63
6747.72
6760.91
6758.37
6747.32
6733.94
6722.48
6714.62
6709.33
6705.17
6700.82
6695.21
6688.21
6681.9
6675.1
6668.89
6664.32
6661.34
6660.03
0
0
392.034
753.325
2502.63
5009.58
6782.11
8295.95
3670.61
4208.72
4294.16
4387.13
4535.08
4751.23
4993.44
5248.28
5528.93
5793.57
6017.92
6223.6
6402.94
6546.42
6653.8
6725.78
6766.02
6781.24
6779.53
6768.93
6755.86
6744.66
6736.92
6731.94
6728.52
6725.08
6720.41
6714.22
6708.8
6702.98
6697.56
6693.61
6691.21
6690.29
1075.91
4008.22
301.267
988.994
3872.27
5664.9
6956.86
8151.63
3230.24
3886.44
4101.93
4260.12
4462.74
4712.96
4963.72
5232.96
5527.02
5792.44
6017.53
6227.29
6411.92
6558.81
6669.49
6744.47
6787.23
6803.81
6802.35
6791.74
6778.78
6767.6