/*--------------------------------*- C++ -*----------------------------------*\
| =========                 |                                                 |
| \\      /  F ield         | OpenFOAM: The Open Source CFD Toolbox           |
|  \\    /   O peration     | Version:  2406                                  |
|   \\  /    A nd           | Website:  www.openfoam.com                      |
|    \\/     M anipulation  |                                                 |
\*---------------------------------------------------------------------------*/
FoamFile
{
    version     2.0;
    format      ascii;
    arch        "LSB;label=32;scalar=64";
    class       volScalarField;
    location    "0.109";
    object      Mach;
}
// * * * * * * * * * * * * * * * * * * * * * * * * * * * * * * * * * * * * * //

dimensions      [0 0 0 0 0 0 0];

internalField   nonuniform List<scalar> 
8988
(
0.472426
0.472678
0.472771
0.4728
0.472809
0.472879
0.472923
0.472962
0.472974
0.472983
0.473005
0.473016
0.473019
0.473013
0.473013
0.473012
0.473005
0.472993
0.472976
0.472955
0.472932
0.472899
0.47285
0.472785
0.472706
0.472618
0.472525
0.472423
0.472307
0.472178
0.472038
0.471882
0.47171
0.471521
0.471318
0.471103
0.470877
0.470641
0.470409
0.470205
0.470071
0.469988
0.470688
0.471005
0.471165
0.471448
0.471485
0.471606
0.471773
0.471877
0.472022
0.472107
0.472203
0.472257
0.472305
0.472341
0.472402
0.47246
0.472514
0.472563
0.472602
0.472634
0.472661
0.47268
0.472691
0.472685
0.472667
0.472632
0.472587
0.472532
0.472456
0.472355
0.472247
0.472142
0.47203
0.471907
0.471775
0.471636
0.471495
0.471349
0.47121
0.471084
0.471012
0.470975
0.470106
0.470391
0.470655
0.470801
0.470934
0.470845
0.471042
0.471158
0.471269
0.471385
0.471529
0.471642
0.47171
0.471805
0.471918
0.472022
0.472105
0.472174
0.472231
0.472279
0.472323
0.472356
0.472381
0.4724
0.472409
0.472411
0.472408
0.4724
0.472395
0.472389
0.472354
0.472296
0.472231
0.472179
0.472128
0.472084
0.472052
0.472031
0.472017
0.472001
0.472003
0.472032
0.469753
0.470042
0.470225
0.47031
0.470302
0.469998
0.470151
0.470205
0.470368
0.470454
0.470658
0.470772
0.470881
0.47101
0.471181
0.47137
0.471513
0.471619
0.471707
0.471789
0.471866
0.471938
0.472006
0.472074
0.472142
0.472212
0.472275
0.472339
0.472423
0.472524
0.472606
0.472672
0.472731
0.472783
0.472844
0.472918
0.473005
0.4731
0.473193
0.473273
0.473347
0.473411
0.469442
0.469631
0.469905
0.469894
0.469647
0.46963
0.469344
0.469423
0.469466
0.469569
0.469707
0.469902
0.470197
0.470488
0.470737
0.470922
0.471077
0.471198
0.471311
0.471421
0.471532
0.471643
0.471756
0.471875
0.472002
0.472139
0.472296
0.472473
0.472648
0.472794
0.472964
0.473145
0.47333
0.473514
0.4737
0.473889
0.47408
0.474265
0.474439
0.474582
0.474719
0.474783
0.469266
0.469511
0.469792
0.469784
0.469501
0.469229
0.46913
0.4689
0.468931
0.468977
0.469139
0.469422
0.469832
0.4702
0.470493
0.470699
0.470874
0.471015
0.47115
0.47129
0.471438
0.471599
0.471775
0.47197
0.472179
0.472405
0.472653
0.47291
0.473172
0.473441
0.473714
0.473998
0.474284
0.474564
0.474834
0.475086
0.475321
0.475538
0.475731
0.475882
0.476028
0.476089
0.469446
0.469712
0.47008
0.47006
0.469782
0.469388
0.469081
0.468963
0.468754
0.46885
0.469074
0.469482
0.469966
0.470373
0.470696
0.470904
0.471092
0.471245
0.471397
0.471558
0.471729
0.471916
0.472126
0.472367
0.472626
0.472904
0.4732
0.473508
0.473826
0.474162
0.474508
0.474876
0.475246
0.475603
0.47594
0.476253
0.476542
0.476791
0.476997
0.477149
0.477308
0.477367
0.470225
0.470491
0.470571
0.470719
0.470454
0.470104
0.469566
0.469287
0.469181
0.469187
0.46949
0.469962
0.470476
0.470919
0.471272
0.471524
0.47172
0.471878
0.47204
0.472207
0.472385
0.47258
0.472796
0.473037
0.473296
0.473573
0.473865
0.474185
0.474534
0.474904
0.475287
0.475695
0.47611
0.476526
0.476926
0.477315
0.477672
0.477981
0.478236
0.478417
0.478615
0.478647
0.471452
0.471666
0.471949
0.471823
0.471547
0.471039
0.470635
0.470116
0.469909
0.469866
0.470068
0.470548
0.471125
0.471648
0.472073
0.472376
0.472578
0.472738
0.472883
0.473045
0.473223
0.473418
0.473627
0.473864
0.474125
0.474408
0.474714
0.475042
0.475398
0.475774
0.476169
0.476585
0.477013
0.477455
0.477895
0.478347
0.478778
0.479163
0.479489
0.479722
0.479967
0.479968
0.472747
0.473057
0.473233
0.473129
0.472788
0.471991
0.471486
0.471103
0.470903
0.470978
0.471256
0.471707
0.472273
0.472822
0.473283
0.473626
0.473861
0.474034
0.47417
0.474317
0.474476
0.47464
0.474815
0.475011
0.475229
0.475475
0.475745
0.476042
0.476369
0.476727
0.477114
0.477527
0.477958
0.478411
0.478875
0.479368
0.47986
0.480313
0.480717
0.481024
0.481345
0.481344
0.474511
0.474682
0.474912
0.474614
0.47422
0.473603
0.472793
0.47226
0.47199
0.472031
0.472378
0.472986
0.473623
0.474224
0.474701
0.47508
0.475345
0.475552
0.475699
0.475851
0.475988
0.476132
0.476272
0.476424
0.476588
0.47677
0.476978
0.477218
0.477496
0.477813
0.478169
0.478561
0.478984
0.479436
0.479915
0.480423
0.480942
0.481432
0.481892
0.482264
0.482663
0.482661
0.476392
0.476594
0.47673
0.476637
0.475794
0.475123
0.474335
0.473638
0.473352
0.473489
0.473904
0.474507
0.475197
0.475818
0.476327
0.476737
0.477043
0.477257
0.47743
0.477566
0.477706
0.477834
0.477963
0.478097
0.478235
0.478379
0.478538
0.478717
0.478923
0.479165
0.479449
0.479781
0.480161
0.480585
0.481049
0.481539
0.482042
0.482542
0.483025
0.483418
0.483855
0.483834
0.478515
0.478798
0.478785
0.478561
0.478012
0.47686
0.476123
0.47544
0.47504
0.475147
0.475671
0.47632
0.477048
0.477698
0.478203
0.478631
0.47895
0.479173
0.479349
0.479489
0.479614
0.479733
0.479859
0.479986
0.48012
0.48026
0.480408
0.480564
0.480733
0.480916
0.481118
0.481346
0.481615
0.481938
0.482319
0.482746
0.483189
0.483652
0.48412
0.484501
0.484956
0.48489
0.480946
0.481064
0.481077
0.48078
0.480007
0.479255
0.478091
0.477442
0.477136
0.477293
0.477862
0.478538
0.479235
0.479871
0.480363
0.480786
0.481103
0.481336
0.481515
0.481653
0.481772
0.481882
0.481998
0.482119
0.482244
0.482375
0.482512
0.482656
0.482808
0.482963
0.483118
0.483274
0.483432
0.483606
0.483809
0.484058
0.484367
0.484683
0.485072
0.485393
0.485819
0.485688
0.483455
0.483547
0.483567
0.483126
0.482413
0.481428
0.48046
0.479729
0.47959
0.479856
0.480392
0.481036
0.481672
0.482253
0.48276
0.483182
0.483502
0.483735
0.483917
0.484055
0.484168
0.484274
0.484376
0.484482
0.484591
0.484699
0.484807
0.484915
0.485025
0.485132
0.48523
0.485321
0.485399
0.485468
0.485526
0.485584
0.485643
0.485799
0.485954
0.486129
0.48648
0.486277
0.485665
0.485844
0.485942
0.485628
0.484641
0.483807
0.48299
0.482457
0.482387
0.48266
0.483143
0.483776
0.484401
0.484931
0.485431
0.485832
0.486135
0.48637
0.48654
0.486666
0.486767
0.48685
0.486931
0.487011
0.487085
0.487161
0.487229
0.487288
0.48734
0.487386
0.48742
0.487441
0.48744
0.487419
0.487365
0.487275
0.487155
0.487043
0.487002
0.486902
0.487063
0.486742
0.488447
0.488715
0.488517
0.488143
0.487432
0.486357
0.485566
0.485129
0.485078
0.485374
0.485925
0.48656
0.487193
0.48775
0.488214
0.488584
0.488868
0.489086
0.489241
0.489351
0.489435
0.489502
0.489555
0.489599
0.489639
0.489674
0.489699
0.489708
0.489702
0.489684
0.489646
0.489593
0.489515
0.489408
0.489262
0.489066
0.48881
0.488518
0.48825
0.487962
0.487871
0.487395
0.4918
0.491711
0.49157
0.490962
0.490047
0.488963
0.487917
0.487413
0.48749
0.487907
0.488543
0.489227
0.489868
0.490451
0.49092
0.491289
0.491577
0.491784
0.49194
0.49204
0.492109
0.492158
0.492189
0.492204
0.492209
0.492202
0.492179
0.492139
0.492079
0.492002
0.491902
0.491778
0.491624
0.491434
0.491204
0.490924
0.49058
0.490184
0.489761
0.489323
0.489138
0.488618
0.494038
0.494144
0.493992
0.493319
0.492424
0.491454
0.490676
0.490238
0.490193
0.490517
0.49106
0.491697
0.492347
0.492936
0.493438
0.493853
0.494155
0.494374
0.494538
0.494644
0.494703
0.494733
0.494744
0.494736
0.494712
0.49467
0.494611
0.494535
0.494436
0.494313
0.49416
0.493975
0.493755
0.493494
0.493191
0.492849
0.492454
0.492014
0.491556
0.491076
0.490745
0.490231
0.496815
0.496937
0.496613
0.496099
0.495251
0.494014
0.493133
0.492621
0.492556
0.49285
0.493359
0.49398
0.494649
0.495281
0.495836
0.496293
0.496639
0.496881
0.49705
0.497162
0.497218
0.49723
0.497225
0.497198
0.497151
0.497083
0.496996
0.496892
0.496764
0.496606
0.496414
0.496184
0.495917
0.495608
0.495258
0.494883
0.494472
0.494033
0.493593
0.493177
0.492848
0.49245
0.499539
0.499462
0.499356
0.498839
0.49774
0.496833
0.495673
0.495009
0.494794
0.494968
0.495457
0.496125
0.496862
0.497573
0.498182
0.49867
0.499038
0.499303
0.499481
0.499588
0.499641
0.499649
0.499633
0.49959
0.499527
0.499444
0.499337
0.499208
0.499055
0.49887
0.498651
0.498396
0.498105
0.49778
0.497417
0.497043
0.496649
0.496252
0.495878
0.495611
0.495357
0.495144
0.502233
0.502382
0.502216
0.501578
0.500743
0.49931
0.498226
0.497169
0.496745
0.496904
0.497474
0.498246
0.499084
0.499862
0.500518
0.501029
0.501401
0.501677
0.501861
0.501961
0.502011
0.502013
0.50199
0.501939
0.501866
0.501774
0.501656
0.501511
0.501341
0.50114
0.500909
0.500649
0.50036
0.500049
0.499704
0.499364
0.499025
0.498718
0.498447
0.498351
0.498134
0.49813
0.505156
0.50512
0.504888
0.504282
0.503182
0.501905
0.500511
0.499371
0.498834
0.498875
0.499457
0.500366
0.501334
0.502171
0.502851
0.503367
0.503736
0.504014
0.504202
0.504304
0.504349
0.504343
0.504322
0.504273
0.504197
0.504099
0.503974
0.503825
0.503654
0.503456
0.503231
0.502986
0.502722
0.502452
0.502164
0.501901
0.501656
0.501468
0.501299
0.501317
0.501095
0.501239
0.507734
0.507677
0.507346
0.506648
0.505503
0.504218
0.502682
0.501556
0.500955
0.50102
0.501694
0.502677
0.503682
0.50454
0.50521
0.505718
0.506088
0.506355
0.506539
0.506645
0.506684
0.506661
0.506638
0.506604
0.506537
0.506447
0.50633
0.506193
0.506039
0.505865
0.505673
0.505472
0.505264
0.505069
0.504873
0.504714
0.504568
0.504473
0.504362
0.504416
0.504196
0.504402
0.509719
0.509859
0.509471
0.508787
0.507749
0.506336
0.505018
0.503836
0.503248
0.503374
0.504148
0.505113
0.506077
0.506899
0.507545
0.508037
0.508413
0.508681
0.508865
0.508978
0.50902
0.509
0.508971
0.508954
0.508914
0.508849
0.508763
0.508662
0.50855
0.508429
0.508299
0.508176
0.508052
0.507949
0.507842
0.507765
0.507677
0.50763
0.507547
0.507608
0.507405
0.50764
0.511797
0.511842
0.511674
0.511043
0.509921
0.508492
0.507223
0.5062
0.505687
0.505835
0.506487
0.507408
0.50836
0.509174
0.509807
0.510305
0.510686
0.510961
0.51116
0.511291
0.511356
0.511366
0.511356
0.511366
0.511371
0.511354
0.511319
0.511279
0.511235
0.51119
0.511139
0.511097
0.511052
0.511024
0.51098
0.510959
0.510911
0.510895
0.510842
0.510911
0.510728
0.510986
0.514383
0.514399
0.514097
0.513367
0.5122
0.510828
0.509514
0.508321
0.507717
0.507829
0.508536
0.509532
0.510529
0.511372
0.512031
0.512551
0.512951
0.513251
0.513479
0.513639
0.513738
0.513792
0.51382
0.513871
0.513926
0.513972
0.514004
0.514031
0.514064
0.514099
0.514127
0.514163
0.514187
0.514224
0.514235
0.514266
0.514262
0.51428
0.514262
0.514348
0.514179
0.514459
0.516178
0.516366
0.515997
0.515453
0.514455
0.51306
0.511643
0.510512
0.509999
0.51009
0.51078
0.511771
0.512763
0.513615
0.514305
0.514852
0.515278
0.515619
0.515887
0.516084
0.516226
0.516326
0.516399
0.51649
0.5166
0.516705
0.516799
0.516895
0.516991
0.517096
0.517197
0.517306
0.5174
0.517505
0.517576
0.517667
0.517719
0.517778
0.517801
0.517914
0.517758
0.518061
0.518474
0.51841
0.518182
0.517661
0.51664
0.515236
0.513976
0.512897
0.512345
0.512549
0.513252
0.514205
0.515174
0.516029
0.516744
0.517324
0.517792
0.518172
0.518472
0.518703
0.51888
0.519016
0.519128
0.519245
0.519396
0.519546
0.519691
0.519844
0.519999
0.520165
0.520329
0.520504
0.520663
0.520836
0.520974
0.521132
0.52125
0.521362
0.521431
0.521585
0.521448
0.521774
0.520985
0.521034
0.520743
0.520129
0.519023
0.517698
0.516407
0.515376
0.515024
0.515242
0.515895
0.516777
0.517719
0.518596
0.519356
0.519983
0.520491
0.520904
0.521235
0.521494
0.5217
0.521879
0.522009
0.522139
0.522322
0.522508
0.522691
0.522886
0.523086
0.523303
0.523523
0.523756
0.523973
0.524208
0.524411
0.524635
0.524825
0.525001
0.525111
0.525318
0.525207
0.525555
0.524007
0.524127
0.523955
0.52322
0.52211
0.520672
0.519378
0.518207
0.517657
0.517904
0.518595
0.519509
0.520496
0.521426
0.522228
0.52289
0.523436
0.523883
0.524237
0.524516
0.524756
0.524941
0.525071
0.525199
0.525393
0.525603
0.525811
0.526035
0.526269
0.526523
0.526785
0.527066
0.527336
0.527624
0.527883
0.528162
0.528416
0.528653
0.528795
0.529058
0.528977
0.529344
0.527665
0.527783
0.527595
0.526919
0.525529
0.52424
0.522768
0.521553
0.520709
0.520783
0.521432
0.522441
0.52353
0.524538
0.525391
0.526076
0.526653
0.527124
0.527484
0.527788
0.528058
0.528246
0.52837
0.528486
0.528682
0.528899
0.529113
0.529344
0.529589
0.529857
0.530137
0.530444
0.530748
0.531073
0.531376
0.531696
0.531992
0.532278
0.532443
0.532761
0.532712
0.533088
0.531522
0.531484
0.531274
0.530656
0.529578
0.528329
0.52661
0.525322
0.52426
0.523969
0.524508
0.525624
0.526835
0.527939
0.528856
0.529576
0.530173
0.530649
0.531008
0.531321
0.531591
0.531787
0.531897
0.531976
0.532169
0.532383
0.532599
0.532825
0.533068
0.533332
0.533612
0.533921
0.534234
0.534572
0.534895
0.535232
0.535546
0.535864
0.536044
0.536403
0.53638
0.536748
0.535588
0.535501
0.535267
0.534737
0.533618
0.532227
0.530769
0.529248
0.528103
0.527775
0.528241
0.529271
0.530497
0.531649
0.532602
0.533357
0.533963
0.534436
0.53481
0.535121
0.535376
0.535599
0.535697
0.535716
0.535896
0.536093
0.536298
0.536507
0.536729
0.536972
0.537232
0.53752
0.537814
0.538137
0.538451
0.538781
0.539089
0.53942
0.539603
0.539981
0.539978
0.540319
0.539516
0.539643
0.539519
0.538879
0.53791
0.536275
0.53485
0.533372
0.532223
0.531801
0.532251
0.533227
0.53444
0.535597
0.536568
0.537343
0.537948
0.538429
0.538813
0.539116
0.539367
0.539594
0.539693
0.539674
0.539832
0.539998
0.540179
0.540359
0.540547
0.540755
0.54098
0.541232
0.541494
0.541783
0.542069
0.542372
0.542655
0.542976
0.543148
0.543521
0.543533
0.543831
0.543825
0.543949
0.543673
0.54318
0.542117
0.540831
0.539131
0.537591
0.536578
0.536205
0.536539
0.537438
0.538601
0.53974
0.540715
0.541501
0.542111
0.5426
0.542982
0.54328
0.543522
0.543727
0.54383
0.543803
0.543912
0.544052
0.544211
0.544363
0.544519
0.544691
0.544875
0.545082
0.545298
0.545541
0.545783
0.546045
0.546286
0.546578
0.546721
0.547069
0.547087
0.547331
0.548566
0.54856
0.548256
0.547682
0.54654
0.545166
0.543638
0.542032
0.540864
0.540469
0.540764
0.541614
0.542764
0.543922
0.544925
0.54573
0.546361
0.546863
0.54725
0.547552
0.547791
0.547978
0.548091
0.54808
0.548105
0.548225
0.548359
0.548482
0.548608
0.548745
0.548891
0.549056
0.549228
0.549422
0.549615
0.549827
0.550015
0.550263
0.550366
0.550672
0.550685
0.550871
0.553092
0.553239
0.553095
0.552393
0.551421
0.549683
0.548201
0.546644
0.545353
0.544662
0.544853
0.545697
0.546899
0.548117
0.549169
0.55001
0.55067
0.551183
0.551572
0.551879
0.552117
0.552295
0.552416
0.552438
0.552398
0.552495
0.552598
0.552701
0.5528
0.552906
0.553017
0.553144
0.553274
0.553422
0.553567
0.553729
0.55386
0.554058
0.554117
0.55437
0.554366
0.554494
0.557924
0.557975
0.557668
0.557077
0.555955
0.554727
0.552762
0.551253
0.549863
0.549081
0.549106
0.549873
0.551058
0.552305
0.553402
0.554288
0.554982
0.555511
0.55592
0.556248
0.556491
0.556667
0.556794
0.556832
0.556768
0.556842
0.556913
0.557004
0.557084
0.557165
0.557248
0.557342
0.557437
0.557541
0.557638
0.557753
0.557827
0.557973
0.557991
0.558189
0.55816
0.558239
0.562838
0.562746
0.562454
0.56177
0.560699
0.559212
0.557755
0.555761
0.554505
0.553522
0.553443
0.554106
0.555251
0.556513
0.557652
0.558588
0.559322
0.559867
0.560312
0.560658
0.560903
0.561096
0.561232
0.561274
0.561205
0.561264
0.561309
0.561388
0.561453
0.561514
0.561573
0.561638
0.561699
0.561764
0.561818
0.56189
0.561916
0.562012
0.561995
0.562143
0.562085
0.562129
0.567471
0.567542
0.567335
0.566735
0.565342
0.563927
0.562295
0.560702
0.559038
0.558048
0.557844
0.558408
0.559511
0.560782
0.561966
0.562945
0.563708
0.5643
0.564771
0.565122
0.565388
0.565601
0.565736
0.565774
0.565708
0.565748
0.565775
0.56584
0.565892
0.565939
0.565978
0.566017
0.56605
0.566082
0.566099
0.566138
0.566126
0.566177
0.566129
0.566233
0.566146
0.566174
0.572136
0.57228
0.572097
0.571356
0.57039
0.568571
0.566973
0.565271
0.563759
0.562665
0.562372
0.562846
0.563896
0.565165
0.566372
0.567393
0.568173
0.568798
0.569286
0.569635
0.569941
0.570169
0.570296
0.570338
0.570295
0.570305
0.570316
0.570363
0.570401
0.570431
0.570453
0.570471
0.570481
0.570487
0.570475
0.570486
0.570446
0.57046
0.570385
0.570455
0.570339
0.570366
0.577047
0.577008
0.576829
0.576167
0.575052
0.573667
0.571713
0.569949
0.568386
0.567433
0.567069
0.567434
0.568416
0.56967
0.570895
0.571932
0.572758
0.573407
0.573896
0.574268
0.574588
0.57481
0.574935
0.574986
0.57496
0.574933
0.574934
0.574966
0.574987
0.574998
0.575002
0.575
0.574989
0.574975
0.574936
0.574923
0.574864
0.574847
0.574755
0.5748
0.574658
0.574693
0.582178
0.582037
0.581676
0.581023
0.579871
0.578485
0.576598
0.574765
0.573281
0.572071
0.571626
0.572078
0.573053
0.5743
0.575547
0.576607
0.577467
0.578142
0.578639
0.579042
0.579349
0.579543
0.579662
0.579712
0.579685
0.579623
0.579618
0.579637
0.579641
0.579634
0.579623
0.579605
0.579577
0.579546
0.579486
0.579452
0.579379
0.579339
0.579234
0.579266
0.579104
0.579152
0.586753
0.58688
0.586676
0.585944
0.58469
0.583091
0.581413
0.579667
0.578025
0.576929
0.576597
0.57695
0.577875
0.57909
0.580311
0.581376
0.582241
0.58292
0.583442
0.583844
0.584139
0.584343
0.584453
0.584482
0.58445
0.584377
0.584367
0.584365
0.584359
0.584343
0.584314
0.584281
0.584239
0.5842
0.584127
0.584075
0.583994
0.583938
0.583824
0.58385
0.583672
0.583738
0.591753
0.591896
0.591698
0.590938
0.589964
0.588073
0.586386
0.584606
0.582993
0.581815
0.581446
0.581801
0.582752
0.583959
0.585188
0.586246
0.587083
0.587768
0.5883
0.588689
0.588974
0.589205
0.589318
0.589322
0.589278
0.589201
0.58918
0.589158
0.589144
0.589124
0.589084
0.589037
0.588984
0.58894
0.588862
0.588801
0.588718
0.588652
0.58853
0.588557
0.588368
0.58845
0.597024
0.59712
0.59677
0.596035
0.594897
0.593334
0.591432
0.589594
0.587986
0.586769
0.586295
0.586615
0.587586
0.588811
0.590067
0.591149
0.591961
0.592667
0.593207
0.593578
0.593881
0.594112
0.594217
0.594219
0.594176
0.594095
0.594059
0.59402
0.594
0.593976
0.593931
0.59388
0.59382
0.593773
0.593697
0.593632
0.593552
0.593484
0.593357
0.593389
0.593192
0.593293
0.602184
0.602384
0.601949
0.601155
0.600002
0.598361
0.59647
0.594682
0.593003
0.591705
0.5912
0.591493
0.592444
0.593708
0.594974
0.59607
0.596888
0.597572
0.598101
0.598462
0.598798
0.599037
0.599141
0.599159
0.599128
0.599047
0.598999
0.598951
0.598929
0.598903
0.59886
0.598814
0.598753
0.598706
0.598634
0.59857
0.598499
0.598436
0.598308
0.598349
0.59815
0.598272
0.60736
0.607578
0.607078
0.606275
0.605189
0.60344
0.601644
0.599768
0.598089
0.596783
0.596079
0.596296
0.597272
0.598588
0.599881
0.600976
0.601833
0.602498
0.602991
0.603366
0.603733
0.603981
0.604095
0.604138
0.604122
0.604044
0.60399
0.603943
0.603922
0.6039
0.603867
0.60383
0.603774
0.603733
0.603672
0.603614
0.603558
0.60351
0.603391
0.603445
0.603248
0.603391
0.612429
0.612362
0.612079
0.611324
0.610142
0.608665
0.606737
0.604732
0.603141
0.601765
0.601076
0.601349
0.602204
0.603448
0.604756
0.605858
0.606779
0.607483
0.607982
0.608407
0.608756
0.608982
0.609108
0.609166
0.609156
0.609089
0.609033
0.608994
0.608976
0.608965
0.608944
0.608919
0.608875
0.60885
0.608809
0.608763
0.608724
0.608698
0.608596
0.608666
0.608476
0.608641
0.617377
0.617469
0.617237
0.616464
0.615254
0.613643
0.611982
0.61
0.608283
0.606773
0.606029
0.606209
0.60706
0.608332
0.609663
0.610813
0.611759
0.612494
0.613053
0.613511
0.613845
0.614062
0.614198
0.614252
0.614244
0.614194
0.61414
0.614113
0.614105
0.614109
0.614106
0.614097
0.614069
0.614061
0.614042
0.614014
0.613993
0.613993
0.613912
0.613998
0.613822
0.614007
0.622424
0.622531
0.622121
0.621466
0.620226
0.61885
0.616814
0.615038
0.613259
0.611785
0.611122
0.611309
0.612177
0.613439
0.614729
0.615876
0.616831
0.61758
0.61818
0.618638
0.618965
0.6192
0.619348
0.619402
0.6194
0.619371
0.619325
0.619315
0.619316
0.619335
0.619351
0.619363
0.619357
0.619365
0.61937
0.619362
0.61936
0.619384
0.619324
0.619424
0.61926
0.619461
0.627878
0.627696
0.627315
0.626657
0.625407
0.623969
0.622069
0.6202
0.618352
0.616962
0.616249
0.616401
0.617281
0.618554
0.619847
0.620996
0.621945
0.622708
0.623316
0.62379
0.624157
0.624422
0.624582
0.624648
0.624657
0.624643
0.624601
0.624603
0.624611
0.624646
0.62468
0.62471
0.624726
0.624748
0.624774
0.624791
0.624806
0.624854
0.624817
0.624928
0.62477
0.624984
0.632861
0.632972
0.632741
0.631932
0.630827
0.628946
0.627205
0.62532
0.623542
0.622207
0.621625
0.621772
0.622617
0.623843
0.625116
0.62624
0.627178
0.627943
0.628546
0.62904
0.629435
0.629718
0.629894
0.629982
0.630006
0.630008
0.629977
0.629986
0.630002
0.63005
0.630097
0.630141
0.630173
0.63021
0.630252
0.630289
0.630315
0.630383
0.630369
0.63049
0.630336
0.630563
0.638189
0.638372
0.637996
0.637303
0.636157
0.634737
0.632475
0.630676
0.628973
0.627649
0.627068
0.62732
0.628126
0.629272
0.630474
0.63158
0.632501
0.63326
0.633885
0.634401
0.634815
0.635127
0.635336
0.635445
0.635477
0.635485
0.635462
0.635474
0.635495
0.63555
0.635602
0.635651
0.635696
0.635742
0.635796
0.635849
0.635883
0.635964
0.635967
0.636095
0.635942
0.636183
0.644091
0.644069
0.643672
0.642969
0.6418
0.640181
0.638537
0.636347
0.634624
0.633153
0.632599
0.63272
0.633514
0.634733
0.635958
0.637058
0.637994
0.638703
0.639354
0.63987
0.640273
0.640646
0.640913
0.641034
0.641058
0.641063
0.641055
0.641054
0.641076
0.641136
0.641187
0.641242
0.641295
0.641344
0.641403
0.641467
0.641503
0.641589
0.641604
0.641734
0.641577
0.641832
0.649968
0.65007
0.649832
0.649017
0.647963
0.646031
0.644222
0.642284
0.640422
0.6389
0.638136
0.638272
0.639078
0.640275
0.641521
0.642624
0.64357
0.644264
0.644974
0.645535
0.645925
0.646319
0.646605
0.646729
0.646752
0.646761
0.646761
0.646744
0.646765
0.646816
0.646861
0.646916
0.646969
0.647017
0.647074
0.647139
0.647171
0.647252
0.647272
0.647402
0.647236
0.647504
0.656182
0.656296
0.655931
0.655146
0.653945
0.652408
0.650381
0.648399
0.646536
0.64482
0.643932
0.643849
0.64463
0.645822
0.647114
0.648312
0.649305
0.650113
0.650811
0.651371
0.651786
0.652155
0.652408
0.652522
0.652548
0.652554
0.652551
0.652527
0.652549
0.652587
0.652629
0.652678
0.652722
0.652762
0.65281
0.65287
0.652893
0.652962
0.652981
0.653108
0.652925
0.653207
0.662528
0.662604
0.662366
0.661563
0.659991
0.658452
0.656641
0.654505
0.652431
0.650829
0.649915
0.649761
0.650414
0.651574
0.652885
0.654127
0.655169
0.656042
0.656752
0.657291
0.657715
0.658075
0.658316
0.658429
0.658459
0.658458
0.65845
0.658416
0.658431
0.658451
0.658479
0.658516
0.658551
0.658581
0.658614
0.658662
0.658672
0.658725
0.658738
0.658862
0.658657
0.658957
0.668654
0.668736
0.668462
0.667724
0.666226
0.664646
0.662781
0.660897
0.658495
0.657172
0.655886
0.655718
0.65643
0.657603
0.658879
0.660118
0.661169
0.662011
0.662731
0.663295
0.663723
0.66407
0.664313
0.664425
0.664446
0.664438
0.664429
0.66439
0.664395
0.6644
0.664409
0.66443
0.664453
0.664472
0.664487
0.664522
0.664519
0.664552
0.664556
0.664679
0.664446
0.664769
0.674844
0.675076
0.674614
0.67385
0.672712
0.670897
0.668918
0.666848
0.665054
0.663327
0.662126
0.661832
0.662427
0.663577
0.664906
0.666168
0.667234
0.668054
0.668788
0.669367
0.669806
0.670162
0.670409
0.670519
0.670534
0.670511
0.670488
0.670438
0.670434
0.670423
0.670414
0.670418
0.670429
0.670437
0.670436
0.670455
0.670438
0.670448
0.67044
0.670563
0.670295
0.670648
0.681107
0.681106
0.680797
0.680062
0.678813
0.677411
0.675261
0.673224
0.671298
0.669576
0.668233
0.667934
0.668528
0.66974
0.671112
0.672339
0.673426
0.674257
0.674987
0.67555
0.675939
0.676334
0.676592
0.676694
0.676699
0.676657
0.676616
0.676555
0.676536
0.676512
0.676491
0.676481
0.676477
0.676469
0.67645
0.676455
0.676425
0.676414
0.676394
0.676518
0.676211
0.676604
0.687804
0.687703
0.687244
0.68655
0.685343
0.683759
0.681959
0.679455
0.677552
0.675759
0.67457
0.674244
0.674771
0.675959
0.677358
0.678561
0.679638
0.680438
0.68117
0.681733
0.682083
0.682487
0.682768
0.682903
0.682912
0.682872
0.682825
0.682752
0.682713
0.682675
0.682643
0.68262
0.682599
0.682576
0.682539
0.68253
0.682491
0.682463
0.682434
0.682558
0.68221
0.682653
0.694099
0.694304
0.694212
0.693347
0.691837
0.689862
0.68809
0.686151
0.683892
0.682092
0.680882
0.680615
0.681129
0.68223
0.683564
0.684772
0.685792
0.686662
0.687376
0.687906
0.688299
0.688708
0.689019
0.689163
0.689201
0.689163
0.689102
0.689022
0.688965
0.688913
0.68887
0.688834
0.688798
0.688762
0.688709
0.688686
0.68864
0.688598
0.688563
0.688683
0.688295
0.688799
0.700427
0.700552
0.700444
0.699757
0.698174
0.69654
0.694726
0.692764
0.690531
0.68864
0.687271
0.686834
0.68733
0.688479
0.689798
0.691051
0.692089
0.69295
0.693657
0.694134
0.694606
0.695002
0.695282
0.69545
0.695521
0.695476
0.695408
0.695334
0.695272
0.695209
0.695159
0.695112
0.695068
0.695025
0.694961
0.694926
0.694873
0.694821
0.694786
0.694899
0.694476
0.695045
0.707287
0.707359
0.707088
0.706237
0.704768
0.70312
0.701231
0.699073
0.696705
0.695076
0.693765
0.693242
0.69371
0.694743
0.696035
0.697291
0.698403
0.699261
0.699901
0.70044
0.70092
0.701301
0.701584
0.701802
0.701876
0.701813
0.701743
0.701681
0.701615
0.701549
0.701499
0.701448
0.701399
0.701354
0.701286
0.701245
0.701189
0.701129
0.701099
0.7012
0.700746
0.701377
0.7139
0.714111
0.713947
0.713082
0.71128
0.709773
0.70805
0.705776
0.703449
0.701645
0.700114
0.699446
0.699836
0.700835
0.702209
0.703543
0.704653
0.705546
0.706224
0.70682
0.707305
0.707666
0.707983
0.708199
0.708258
0.708206
0.708144
0.70808
0.708005
0.707941
0.707892
0.707841
0.707793
0.707745
0.707676
0.707628
0.707575
0.707515
0.707497
0.707582
0.707103
0.707785
0.720928
0.720826
0.720421
0.719528
0.71815
0.716583
0.714808
0.712165
0.710226
0.708305
0.706551
0.705814
0.706058
0.707036
0.708433
0.70981
0.711004
0.711949
0.712693
0.713294
0.713736
0.714139
0.714454
0.714638
0.714708
0.714689
0.71462
0.71454
0.714461
0.714395
0.71434
0.714288
0.714237
0.714189
0.714124
0.714075
0.714026
0.713965
0.713965
0.714034
0.713537
0.714251
0.727658
0.727499
0.726989
0.726153
0.724903
0.723397
0.721495
0.718852
0.716922
0.714965
0.713155
0.712279
0.712415
0.713361
0.714769
0.716175
0.717396
0.718405
0.7192
0.719769
0.720263
0.720674
0.720963
0.721136
0.721228
0.721217
0.721136
0.721055
0.720981
0.720912
0.720861
0.720817
0.720761
0.720711
0.720647
0.720595
0.720547
0.720475
0.720498
0.720549
0.720042
0.72077
0.734507
0.734195
0.733497
0.732807
0.731673
0.730159
0.727817
0.725621
0.723667
0.721592
0.719791
0.718854
0.718921
0.719835
0.721224
0.722645
0.723913
0.724935
0.725729
0.726356
0.726867
0.727263
0.727532
0.727738
0.727836
0.727808
0.727723
0.727654
0.727579
0.7275
0.727454
0.727416
0.727357
0.727306
0.727242
0.727182
0.727132
0.72704
0.727089
0.727124
0.726617
0.727346
0.741038
0.740959
0.74035
0.739595
0.738451
0.736872
0.734223
0.732422
0.73042
0.728176
0.726524
0.725459
0.725454
0.72641
0.727812
0.729245
0.730526
0.73158
0.732384
0.733038
0.733561
0.733934
0.734228
0.734436
0.734519
0.73449
0.734409
0.734337
0.734252
0.734168
0.734121
0.73408
0.734019
0.733964
0.733898
0.733831
0.733776
0.733663
0.733739
0.733761
0.733266
0.733992
0.747559
0.747933
0.747306
0.746567
0.745374
0.743109
0.741078
0.739287
0.737268
0.734839
0.733216
0.732086
0.732046
0.733096
0.734501
0.735981
0.737254
0.738252
0.739106
0.739753
0.740244
0.740642
0.740961
0.741146
0.741219
0.741208
0.741131
0.74105
0.740964
0.740883
0.740833
0.740787
0.740721
0.74066
0.740594
0.740525
0.740471
0.740344
0.740448
0.740461
0.739987
0.740702
0.754259
0.754605
0.754576
0.753516
0.751802
0.749673
0.748041
0.74609
0.743613
0.741571
0.739858
0.738803
0.738911
0.7399
0.741312
0.742752
0.744068
0.745074
0.745868
0.74653
0.746987
0.747439
0.747754
0.74793
0.748019
0.748015
0.747919
0.747825
0.747739
0.747654
0.747599
0.747552
0.747482
0.747414
0.747345
0.74727
0.747213
0.747073
0.747205
0.747217
0.746765
0.747468
0.761337
0.761575
0.761439
0.760538
0.758231
0.756845
0.755106
0.752847
0.750246
0.748451
0.74661
0.745539
0.745726
0.746624
0.748073
0.749617
0.750871
0.751941
0.752743
0.753373
0.753892
0.754338
0.754635
0.754804
0.754889
0.75487
0.754768
0.754672
0.754574
0.754476
0.754418
0.754367
0.754294
0.75422
0.75415
0.754069
0.754003
0.753848
0.754009
0.754023
0.753593
0.754285
0.768997
0.76885
0.768189
0.767045
0.765741
0.764218
0.762173
0.759239
0.757466
0.755506
0.75343
0.752515
0.752603
0.753518
0.75498
0.756464
0.757786
0.758835
0.759675
0.760331
0.760843
0.761232
0.761513
0.761686
0.761747
0.761727
0.761655
0.761567
0.761457
0.761354
0.761293
0.761231
0.761155
0.761079
0.761006
0.760917
0.760845
0.76067
0.760868
0.760885
0.760474
0.761152
0.775838
0.775925
0.775388
0.774545
0.77323
0.771435
0.768554
0.76664
0.764588
0.762294
0.76057
0.759666
0.759521
0.760316
0.761737
0.763284
0.764669
0.765779
0.76663
0.767286
0.767765
0.768133
0.768415
0.768579
0.768657
0.768662
0.768594
0.768494
0.768381
0.768281
0.768207
0.768139
0.768065
0.767988
0.767909
0.767812
0.767739
0.767544
0.76779
0.767808
0.767418
0.768078
0.782959
0.783346
0.782843
0.782108
0.780878
0.778226
0.77611
0.774187
0.772008
0.769426
0.767649
0.766421
0.766197
0.767043
0.768493
0.770119
0.771562
0.772734
0.773613
0.774227
0.774738
0.775083
0.775375
0.775525
0.775658
0.77569
0.775611
0.775496
0.775393
0.775295
0.775195
0.775109
0.775029
0.774948
0.774861
0.774751
0.77468
0.774468
0.774767
0.774781
0.774406
0.775047
0.790173
0.790535
0.790539
0.789578
0.78735
0.78538
0.783466
0.781241
0.778372
0.776362
0.774446
0.773332
0.773291
0.774147
0.775598
0.777208
0.778636
0.779739
0.780616
0.781262
0.781745
0.78214
0.782373
0.782581
0.782717
0.782733
0.78264
0.782535
0.782448
0.782342
0.782236
0.782144
0.782051
0.781953
0.781858
0.781737
0.781678
0.781461
0.781807