/*--------------------------------*- C++ -*----------------------------------*\
| =========                 |                                                 |
| \\      /  F ield         | OpenFOAM: The Open Source CFD Toolbox           |
|  \\    /   O peration     | Version:  2406                                  |
|   \\  /    A nd           | Website:  www.openfoam.com                      |
|    \\/     M anipulation  |                                                 |
\*---------------------------------------------------------------------------*/
FoamFile
{
    version     2.0;
    format      ascii;
    arch        "LSB;label=32;scalar=64";
    class       volScalarField;
    location    "0.109";
    object      N;
}
// * * * * * * * * * * * * * * * * * * * * * * * * * * * * * * * * * * * * * //

dimensions      [-1 0 0 0 0 0 0];

internalField   nonuniform List<scalar> 
8988
(
0
0
0
0
0
0
0
0
0
0
0
0
0
0
0
0
0
0
0
0
0
0
0
0
0
0
0
0
0
0
0
0
0
0
0
0
0
0
0
0
0
0
0
0
0
0
0
0
0
0
0
0
0
0
0
0
0
0
0
0
0
0
0
0
0
0
0
0
0
0
0
0
0
0
0
0
0
0
0
0
0
0
0
0
0
0
0
0
0
0
0
0
0
0
0
0
0
0
0
0
0
0
0
0
0
0
0
0
0
0
0
0
0
0
0
0
0
0
0
0
0
0
0
0
0
0
0
0
0
0
0
0
0
0
0
0
0
0
0
0
0
0
0
0
0
0
0
0
0
0
0
0
0
0
0
0
0
0
0
0
0
0
0
0
0
0
0
0
0
0
0
0
0
0
0
0
0
0
0
0
0
0
0
0
0
0
0
0
0
0
0
0
0
0
0
0
0
0
0
0
0
0
0
0
0
0
0
0
0
0
0
0
0
0
0
0
0
0
0
0
0
0
0
0
0
0
0
0
0
0
0
0
0
0
0
0
0
0
0
0
0
0
0
0
0
0
0
0
0
0
0
0
0
0
0
0
0
0
0
0
0
0
0
0
0
0
0
0
0
0
0
0
0
0
0
0
0
0
0
0
0
0
0
0
0
0
0
0
0
0
0
0
0
0
0
0
0
0
0
0
0
0
0
0
0
0
0
0
0
0
0
0
0
0
0
0
0
0
0
0
0
0
0
0
0
0
0
0
0
0
0
0
0
0
0
0
0
0
0
0
0
0
0
0
0
0
0
0
0
0
0
0
0
0
0
0
0
0
0
0
0
0
0
0
0
0
0
0
0
0
0
0
0
0
0
0
0
0
0
0
0
0
0
0
0
0
0
0
0
0
0
0
0
0
0
0
0
0
0
0
0
0
0
0
0
0
0
0
0
0
0
0
0
0
0
0
0
0
0
0
0
0
0
0
0
0
0
0
0
0
0
0
0
0
0
0
0
0
0
0
0
0
0
0
0
0
0
0
0
0
0
0
0
0
0
0
0
0
0
0
0
0
0
0
0
0
0
0
0
0
0
0
0
0
0
0
0
0
0
0
0
0
0
0
0
0
0
0
0
0
0
0
0
0
0
0
0
0
0
0
0
0
0
0
0
0
0
0
0
0
0
0
0
0
0
0
0
0
0
0
0
0
0
0
0
0
0
0
0
0
0
0
0
0
0
0
0
0
0
0
0
0
0
0
0
0
0
0
0
0
0
0
0
0
0
0
0
0
0
0
0
0
0
0
0
0
0
0
0
0
0
0
0
0
0
0
0
0
0
0
0
0
0
0
0
0
0
0
0
0
0
0
0
0
0
0
0
0
0
0
0
0
0
0
0
0
0
0
0
0
0
0
0
0
0
0
0
0
0
0
0
0
0
0
0
0
0
0
0
0
0
0
0
0
0
0
0
0
0
0
0
0
0
0
0
0
0
0
0
0
0
0
0
0
0
0
0
0
0
0
0
0
0
0
0
0
0
0
0
0
0
0
0
0
0
0
0
0
0
0
0
0
0
0
0
0
0
0
0
0
0
0
0
0
0
0
0
0
0
0
0
0
0
0
0
0
0
0
0
0
0
0
0
0
0
0
0
0
0
0
0
0
0
0
0
0
0
0
0
0
0
0
0
0
0
0
0
0
0
0
0
0
0
0
0
0
0
0
0
0
0
0
0
0
0
0
0
0
0
0
0
0
0
0
0
0
0
0
0
0
0
0
0
0
0
0
0
0
0
0
0
0
0
0
0
0
0
0
0
0
0
0
0
0
0
0
0
0
0
0
0
0
0
0
0
0
0
0
0
0
0
0
0
0
0
0
0
0
0
0
0
0
0
0
0
0
0
0
0
0
0
0
0
0
0
0
0
0
0
0
0
0
0
0
0
0
0
0
0
0
0
0
0
0
0
0
0
0
0
0
0
0
0
0
0
0
0
0
0
0
0
0
0
0
0
0
0
0
0
0
0
0
0
0
0
0
0
0
0
0
0
0
0
0
0
0
0
0
0
0
0
0
0
0
0
0
0
0
0
0
0
0
0
0
0
0
0
0
0
0
0
0
0
0
0
0
0
0
0
0
0
0
0
0
0
0
0
0
0
0
0
0
0
0
0
0
0
0
0
0
0
0
0
0
0
0
0
0
0
0
0
0
0
0
0
0
0
0
0
0
0
0
0
0
0
0
0
0
0
0
0
0
0
0
0
0
0
0
0
0
0
0
0
0
0
0
0
0
0
0
0
0
0
0
0
0
0
0
0
0
0
0
0
0
0
0
0
0
0
0
0
0
0
0
0
0
0
0
0
0
0
0
0
0
0
0
0
0
0
0
0
0
0
0
0
0
0
0
0
0
0
0
0
0
0
0
0
0
0
0
0
0
0
0
0
0
0
0
0
0
0
0
0
0
0
0
0
0
0
0
0
0
0
0
0
0
0
0
0
0
0
0
0
0
0
0
0
0
0
0
0
0
0
0
0
0
0
0
0
0
0
0
0
0
0
0
0
0
0
0
0
0
0
0
0
0
0
0
0
0
0
0
0
0
0
0
0
0
0
0
0
0
0
0
0
0
0
0
0
0
0
0
0
0
0
0
0
0
0
0
0
0
0
0
0
0
0
0
0
0
0
0
0
0
0
0
0
0
0
0
0
0
0
0
0
0
0
0
0
0
0
0
0
0
0
0
0
0
0
0
0
0
0
0
0
0
0
0
0
0
0
0
0
0
0
0
0
0
0
0
0
0
0
0
0
0
0
0
0
0
0
0
0
0
0
0
0
0
0
0
0
0
0
0
0
0
0
0
0
0
0
0
0
0
0
0
0
0
0
0
0
0
0
0
0
0
0
0
0
0
0
0
0
0
0
0
0
0
0
0
0
0
0
0
0
0
0
0
0
0
0
0
0
0
0
0
0
0
0
0
0
0
0
0
0
0
0
0
0
0
0
0
0
0
0
0
0
0
0
0
0
0
0
0
0
0
0
0
0
0
0
0
0
0
0
0
0
0
0
0
0
0
0
0
0
0
0
0
0
0
0
0
0
0
0
0
0
0
0
0
0
0
0
0
0
0
0
0
0
0
0
0
0
0
0
0
0
0
0
0
0
0
0
0
0
0
0
0
0
0
0
0
0
0
0
0
0
0
0
0
0
0
0
0
0
0
0
0
0
0
0
0
0
0
0
0
0
0
0
0
0
0
0
0
0
0
0
0
0
0
0
0
0
0
0
0
0
0
0
0
0
0
0
0
0
0
0
0
0
0
0
0
0
0
0
0
0
0
0
0
0
0
0
0
0
0
0
0
0
0
0
0
0
0
0
0
0
0
0
0
0
0
0
0
0
0
0
0
0
0
0
0
0
0
0
0
0
0
0
0
0
0
0
0
0
0
0
0
0
0
0
0
0
0
0
0
0
0
0
0
0
0
0
0
0
0
0
0
0
0
0
0
0
0
0
0
0
0
0
0
0
0
0
0
0
0
0
0
0
0
0
0
0
0
0
0
0
0
0
0
0
0
0
0
0
0
0
0
0
0
0
0
0
0
0
0
0
0
0
0
0
0
0
0
0
0
0
0
0
0
0
0
0
0
0
0
0
0
0
0
0
0
0
0
0
0
0
0
0
0
0
0
0
0
0
0
0
0
0
0
0
0
0
0
0
0
0
0
0
0
0
0
0
0
0
0
0
0
0
0
0
0
0
0
0
0
0
0
0
0
0
0
0
0
0
0
0
0
0
0
0
0
0
0
0
0
0
0
0
0
0
0
0
0
0
0
0
0
0
0
0
0
0
0
0
0
0
0
0
0
0
0
0
0
0
0
0
0
0
0
0
0
0
0
0
0
0
0
0
0
0
0
0
0
0
0
0
0
0
0
0
0
0
0
0
0
0
0
0
0
0
0
0
0
0
0
0
0
0
0
0
0
0
0
0
0
0
0
0
0
0
0
0
0
0
0
0
0
0
0
0
0
0
0
0
0
0
0
0
0
0
0
0
0
0
0
0
0
0
0
0
0
0
0
0
0
0
0
0
0
0
0
0
0
0
0
0
0
0
0
0
0
0
0
0
0
0
0
0
0
0
0
0
0
0
0
0
0
0
0
0
0
0
0
0
0
0
0
0
0
0
0
0
0
0
0
0
0
0
0
0
0
0
0
0
0
0
0
0
0
0
0
0
0
0
0
0
0
0
0
0
0
0
0
0
0
0
0
0
0
0
0
0
0
0
0
0
0
0
0
0
0
0
0
0
0
0
0
0
0
0
0
0
0
0
0
0
0
0
0
0
0
0
0
0
0
0
0
0
0
0
0
0
0
0
0
0
0
0
0
0
0
0
0
0
0
0
0
0
0
0
0
0
0
0
0
0
0
0
0
0
0
0
0
0
0
0
0
0
0
0
0
0
0
0
0
0
0
0
0
0
0
0
0
0
0
0
0
0
0
0
0
0
0
0
0
0
0
0
0
0
0
0
0
0
0
0
0
0
0
0
0
0
0
0
0
0
0
0
0
0
0
0
0
0
0
0
0
0
0
0
0
0
0
0
0
0
0
0
0
0
0
0
0
0
0
0
0
0
0
0
0
0
0
0
0
0
0
0
0
0
0
0
0
0
0
0
0
0
0
0
0
0
0
0
0
0
0
0
0
0
0
0
0
0
0
0
0
0
0
0
0
0
0
0
0
0
0
0
0
0
0
0
0
0
0
0
0
0
0
0
0
0
0
0
0
0
0
0
0
0
0
0
0
0
0
0
0
0
0
0
0
0
0
0
0
0
0
0
0
0
0
0
0
0
0
0
0
0
0
0
0
0
0
0
0
0
0
0
0
0
0
0
0
0
0
0
0
0
0
0
0
0
0
0
0
0
0
0
0
0
0
0
0
0
0
0
0
0
0
0
0
0
0
0
0
0
0
0
0
0
0
0
0
0
0
0
0
0
0
0
0
0
0
0
0
0
0
0
0
0
0
0
0
0
0
0
0
0
0
0
0
0
0
0
0
0
0
0
0
0
0
0
0
0
0
0
0
0
0
0
0
0
0
0
0
0
0
0
0
0
0
0
0
0
0
0
0
0
0
0
0
0
0
0
0
0
0
0
0
0
0
0
0
0
0
0
0
0
0
0
0
0
0
0
0
0
0
0
0
0
0
0
0
0
0
0
0
0
0
0
0
0
0
0
0
0
0
0
0
0
0
0
0
0
0
0
0
0
0
0
0
0
0
0
0
0
0
0
0
0
0
0
0
0
0
0
0
0
0
0
0
0
0
0
0
0
0
0
0
0
0
0
0
0
0
0
0
0
0
0
0
0
0
0
0
0
0
0
0
0
0
0
0
0
0
0
0
0
0
0
0
0
0
0
0
0
0
0
0
0
0
0
0
0
0
0
0
0
0
0
0
0
0
0
0
0
0
0
0
0
0
0
0
0
0
0
0
0
0
0
0
0
0
0
0
0
0
0
0
0
0
0
0
0
0
0
0
0
0
0
0
0
0
0
0
0
0
0
0
0
0
0
0
0
0
0
0
0
0
0
0
0
0
0
0
0
0
0
0
0
0
0
0
0
0
0
0
0
0
0
0
0
0
0
0
0
0
0
0
0
0
0
0
0
0
0
0
0
0
0
0
0
0
0
0
0
0
0
0
0
0
0
0
0
0
0
0
0
0
0
0
0
0
0
0
0
0
0
0
0
0
0
0
0
0
0
0
0
0
0
0
0
0
0
0
0
0
0
0
0
0
0
0
0
0
0
0
0
0
0
0
0
0
0
0
0
0
0
0
0
0
0
0
0
0
0
0
0
0
0
0
0
0
0
0
0
0
0
0
0
0
0
0
0
0
0
0
0
0
0
0
0
0
0
0
0
0
0
0
0
0
0
0
0
0
0
0
0
0
0
0
0
0
0
0
0
0
0
0
0
0
0
0
0
0
0
0
0
0
0
0
0
0
0
0
0
0
0
0
0
0
0
0
0
0
0
0
0
0
0
0
0
0
0
0
0
0
0
0
0
0
0
0
0
0
0
0
0
0
0
0
0
0
0
0
0
0
0
0
0
0
0
0
0
0
0
0
0
0
0
0
0
0
0
0
0
0
0
0
0
0
0
0
0
0
0
0
0
0
0
0
0
0
0
0
0
0
0
0
0
0
0
0
0
0
0
0
0
0
0
0
0
0
0
0
0
0
0
0
0
0
0
0
0
0
0
0
0
0
0
0
0
0
0
0
0
0
0
0
0
0
0
0
0
0
0
0
0
0
0
0
0
0
0
0
0
0
0
0
0
0
0
0
0
0
0
0
0
0
0
0
0
0
0
0
0
0
0
0
0
0
0
0
0
0
0
0
0
0
0
0
0
0
0
0
0
0
0
0
0
0
0
0
0
0
0
0
0
0
0
0
0
0
0
0
0
0
0
0
0
0
0
0
0
0
0
0
0
0
0
0
0
0
0
0
0
0
0
0
0
0
0
0
0
0
0
0
0
0
0
0
0
0
0
0
0
0
0
0
0
0
0
0
0
0
0
0
0
0
0
0
0
0
0
0
0
0
0
0
0
0
0
0
0
0
0
0
0
0
0
0
0
0
0
0
0
0
0
0
0
0
0
0
0
0
0
0
0
0
0
0
0
0
0
0
0
0
0
0
0
0
0
0
0
0
0
0
0
0
0
0
0
0
0
0
0
0
0
0
0
0
0
0
0
0
0
0
0
0
0
0
0
0
0
0
0
0
0
0
0
0
0
0
0
0
0
0
0
0
0
0
0
0
0
0
0
0
0
0
0
0
0
0
0
0
0
0
0
0
0
0
0
0
0
0
0
0
0
0
0
0
0
0
0
0
0
0
0
0
0
0
0
0
0
0
0
0
0
0
0
0
0
0
0
0
0
0
0
0
0
0
0
0
0
0
0
0
0
0
0
0
0
0
0
0
0
0
0
0
0
0
0
0
0
0
0
0
0
0
0
0
0
0
0
0
0
0
0
0
0
0
0
0
0
0
0
0
0
0
0
0
0
0
0
0
0
0
0
0
0
0
0
0
0
0
0
0
0
0
0
0
0
0
0
0
0
0
0
0
0
0
0
0
0
0
0
0
0
0
0
0
0
0
0
0
0
0
0
0
0
0
0
0
0
0
0
0
0
0
0
0
0
0
0
0
0
0
0
0
0
0
0
0
0
0
0
0
0
0
0
0
0
0
0
0
0
0
0
0
0
0
0
0
0
0
0
0
0
0
0
0
0
0
0
0
0
0
0
0
0
0
0
0
0
0
0
0
0
0
0
0
0
0
0
0
0
0
0
0
0
0
0
0
0
0
0
0
0
0
0
0
0
0
0
0
0
0
0
0
0
0
0
0
0
0
0
0
0
0
0
0
0
0
0
0
0
0
0
0
0
0
0
0
0
0
0
0
0
0
0
0
0
0
0
0
0
0
0
0
0
0
0
0
0
0
0
0
0
0
0
0
0
0
0
0
0
0
0
0
0
0
0
0
0
0
0
0
0
0
0
0
0
0
0
0
0
0
0
0
0
0
0
0
0
0
0
0
0
0
0
0
0
0
0
0
0
0
0
0
0
0
0
0
0
0
0
0
0
0
0
0
0
0
0
0
0
0
0
0
0
0
0
0
0
0
0
0
0
0
0
0
0
0
0
0
0
0
0
0
0
0
0
0
0
0
0
0
0
0
0
0
0
0
0
0
0
0
0
0
0
0
0
0
0
0
0
0
0
0
0
0
0
0
0
0
0
0
0
0
0
0
0
0
0
0
0
0
0
0
0
0
0
0
0
0
0
0
0
0
0
0
0
0
0
0
0
0
0
0
0
0
0
0
0
0
0
0
0
0
0
0
0
0
0
0
0
0
0
0
0
0
0
0
0
0
0
0
0
0
0
0
0
0
0
0
0
0
0
0
0
0
0
0
0
0
0
0
0
0
0
0
0
0
0
0
0
0
0
0
0
0
0
0
0
0
0
0
0
0
0
0
0
0
0
0
0
0
0
0
0
0
0
0
0
0
0
0
0
0
0
0
0
0
0
0
0
0
0
0
0
0
0
0
0
0
0
0
0
0
0
0
0
0
0
0
0
0
0
0
0
0
0
0
0
0
0
0
0
0
0
0
0
0
0
0
0
0
0
0
0
0
0
0
0
0
0
0
0
0
0
0
0
0
0
0
0
0
0
0
0
0
0
0
0
0
0
0
0
0
0
0
0
0
0
0
0
0
0
0
0
0
0
0
0
0
0
0
0
0
0
0
0
0
0
0
0
0
0
0
0
0
0
0
0
0
0
0
0
0
0
0
0
0
0
0
0
0
0
0
0
0
0
0
0
0
0
0
0
0
0
0
0
0
0
0
0
0
0
0
0
0
0
0
0
0
0
0
0
0
0
0
0
0
0
0
0
0
0
0
0
0
0
0
0
0
0
0
0
0
0
0
0
0
0
0
0
0
0
0
0
0
0
0
0
0
0
0
0
0
0
0
0
0
0
0
0
0
0
0
0
0
0
0
0
0
0
0
0
0
0
0
0
0
0
0
0
0
0
0
0
0
0
0
0
0
0
0
0
0
0
0
0
0
0
0
0
0
0
0
0
0
0
0
0
0
0
0
0
0
0
0
0
0
0
0
0
0
0
0
0
0
0
0
0
0
0
0
0
0
0
0
0
0
0
0
0
0
0
0
0
0
0
0
0
0
0
0
0
0
0
0
0
0
0
0
0
0
0
0
0
0
0
0
0
0
0
0
0
0
0
0
0
0
0
0
0
0
0
0
0
0
0
0
0
0
0
0
0
0
0
0
0
0
0
0
0
0
0
0
0
0
0
0
0
0
0
0
0
0
0
0
0
0
0
0
0
0
0
0
0
0
0
0
0
0
0
0
0
0
0
0
0
0
0
0
0
0
0
0
0
0
0
0
0
0
0
0
0
0
0
0
0
0
0
0
0
0
0
0
0
0
0
0
0
0
0
0
0
0
0
0
0
0
0
0
0
0
0
0
0
0
0
0
0
0
0
0
0
0
0
0
0
0
0
0
0
0
0
0
0
0
0
0
0
0
0
0
0
0
0
0
0
0
0
0
0
0
0
0
0
0
0
0
0
0
0
0
0
0
0
0
0
0
0
0
0
0
0
0
0
0
0
0
0
0
0
0
0
0
0
0
0
0
0
0
0
0
0
0
0
0
0
0
0
0
0
0
0
0
0
0
0
0
0
0
0
0
0
0
0
0
0
0
0
0
0
0
0
0
0
0
0
0
0
0
0
0
0
0
0
0
0
0
0
0
0
0
0
0
0
0
0
0
0
0
0
0
0
0
0
0
0
0
0
0
0
0
0
0
0
0
0
0
0
0
0
0
0
0
0
0
0
0
0
0
0
0
0
0
0
0
0
0
0
0
0
0
0
0
0
0
0
0
0
0
0
0
0
0
0
0
0
0
0
0
0
0
0
0
0
0
0
0
0
0
0
0
0
0
0
0
0
0
0
0
0
0
0
0
0
0
0
0
0
0
0
0
0
0
0
0
0
0
0
0
0
0
0
0
0
0
0
0
0
0
0
0
0
0
0
0
0
0
0
0
0
0
0
0
0
0
0
0
0
0
0
0
0
0
0
0
0
0
0
0
0
0
0
0
0
0
0
0
0
0
0
0
0
0
0
0
0
0
0
0
0
0
0
0
0
0
0
0
0
0
0
0
0
0
0
0
0
0
0
0
0
0
0
0
0
0
0
0
0
0
0
0
0
0
0
0
0
0
0
0
0
0
0
0
0
0
0
0
0
0
0
0
0
0
0
0
0
0
0
0
0
0
0
0
0
0
0
0
0
0
0
0
0
0
0
0
0
0
0
0
0
0
0
0
0
0
0
0
0
0
0
0
0
0
0
0
0
0
0
0
0
0
0
0
0
0
0
0
0
0
0
0
0
0
0
0
0
0
0
0
0
0
0
0
0
0
0
0
0
0
0
0
0
0
0
0
0
0
0
0
0
0
0
0
0
0
0
0
0
0
0
0
0
0
0
0
0
0
0
0
0
0
0
0
0
0
0
0
0
0
0
0
0
0
0
0
0
0
0
0
0
0
0
0
0
0
0
0
0
0
0
0
0
0
0
0
0
0
0
0
0
0
0
0
0
0
0
0
0
0
0
0
0
0
0
0
0
0
0
0
0
0
0
0
0
0
0
0
0
0
0
0
0
0
0
0
0
0
0
0
0
0
0
0
0
0
0
0
0
0
0
0
0
0
0
0
0
0
0
0
0
0
0
0
0
0
0
0
0
0
0
0
0
0
0
0
0
0
0
0
0
0
0
1.28779e+12
1.57603e+12
1.8145e+12
1.99634e+12
2.11918e+12
2.19247e+12
2.23304e+12
2.25542e+12
2.26676e+12
2.26702e+12
2.25254e+12
2.22272e+12
2.18213e+12
2.13632e+12
2.08963e+12
2.04653e+12
2.01062e+12
1.98428e+12
1.96945e+12
0
0
0
0
0
0
0
0
0
0
0
0
0
0
0
0
0
0
0
0
0
1.61064e+12
2.34586e+12
3.09008e+12
3.75561e+12
4.29903e+12
4.70554e+12
4.97471e+12
5.13391e+12
5.22319e+12
5.27288e+12
5.29744e+12
5.2969e+12
5.26379e+12
5.19806e+12
5.10882e+12
5.00619e+12
4.90004e+12
4.80072e+12
4.71802e+12
4.65808e+12
4.62672e+12
0
0
0
0
0
0
0
0
0
0
0
0
0
0
0
0
0
0
0
0
2.33035e+12
3.823e+12
5.52939e+12
7.2388e+12
8.75285e+12
9.97784e+12
1.08818e+13
1.147e+13
1.18133e+13
1.20051e+13
1.21101e+13
1.21583e+13
1.21499e+13
1.20738e+13
1.1933e+13
1.17409e+13
1.15138e+13
1.12753e+13
1.10517e+13
1.08667e+13
1.0734e+13
1.06662e+13
0
0
0
0
0
0
0
0
0
0
0
0
0
0
0
0
0
0
0
2.81979e+12
5.42732e+12
8.81789e+12
1.26728e+13
1.65108e+13
1.99034e+13
2.26476e+13
2.46612e+13
2.59605e+13
2.67129e+13
2.71278e+13
2.7346e+13
2.74343e+13
2.73986e+13
2.7227e+13
2.69269e+13
2.65111e+13
2.60098e+13
2.54806e+13
2.49889e+13
2.45861e+13
2.4297e+13
2.41485e+13
0
0
0
0
0
0
0
0
0
0
0
0
0
0
0
0
0
0
2.68265e+12
6.52514e+12
1.23435e+13
1.98689e+13
2.83662e+13
3.68044e+13
4.42967e+13
5.03656e+13
5.48013e+13
5.76684e+13
5.93347e+13
6.02408e+13
6.06969e+13
6.08633e+13
6.0765e+13
6.0389e+13
5.97408e+13
5.88311e+13
5.7731e+13
5.65781e+13
5.55218e+13
5.4663e+13
5.40358e+13
5.37067e+13
0
0
0
0
0
0
0
0
0
0
0
0
0
0
0
0
0
1.64709e+12
6.31026e+12
1.4876e+13
2.76729e+13
4.40473e+13
6.23714e+13
8.06063e+13
9.68988e+13
1.10061e+14
1.19661e+14
1.25917e+14
1.29554e+14
1.31481e+14
1.32424e+14
1.32757e+14
1.32539e+14
1.31731e+14
1.30316e+14
1.28319e+14
1.25933e+14
1.23471e+14
1.21249e+14
1.19442e+14
1.18087e+14
1.17358e+14
0
0
0
0
0
0
0
0
0
0
0
0
0
0
0
0
0
4.03582e+12
1.45077e+13
3.33691e+13
6.11651e+13
9.62106e+13
1.35077e+14
1.7379e+14
2.08379e+14
2.36249e+14
2.56701e+14
2.70154e+14
2.77943e+14
2.81993e+14
2.83971e+14
2.8471e+14
2.843e+14
2.82594e+14
2.79531e+14
2.75215e+14
2.70132e+14
2.64976e+14
2.60362e+14
2.56578e+14
2.53677e+14
2.52084e+14
0
0
0
0
0
0
0
0
0
0
0
0
0
0
0
0
1.15928e+12
9.6393e+12
3.27948e+13
7.3799e+13
1.33371e+14
2.07548e+14
2.89273e+14
3.70105e+14
4.41682e+14
4.99208e+14
5.41566e+14
5.69407e+14
5.85533e+14
5.9407e+14
5.98404e+14
6.002e+14
5.9959e+14
5.96129e+14
5.89673e+14
5.80559e+14
5.69959e+14
5.59345e+14
5.49865e+14
5.42006e+14
5.35932e+14
5.32605e+14
0
0
0
0
0
0
0
0
0
0
0
0
0
0
0
0
3.23269e+12
2.27391e+13
7.33973e+13
1.61348e+14
2.87082e+14
4.42012e+14
6.11495e+14
7.77101e+14
9.2231e+14
1.0388e+15
1.124e+15
1.17938e+15
1.21167e+15
1.22956e+15
1.23915e+15
1.24348e+15
1.24296e+15
1.23649e+15
1.22349e+15
1.20484e+15
1.18329e+15
1.16184e+15
1.14258e+15
1.1265e+15
1.1142e+15
1.10763e+15
0
0
0
0
0
0
0
0
0
0
0
0
0
0
0
0
8.55021e+12
5.27807e+13
1.6206e+14
3.47858e+14
6.09251e+14
9.28111e+14
1.27335e+15
1.60648e+15
1.89644e+15
2.1277e+15
2.29457e+15
2.40229e+15
2.46636e+15
2.50337e+15
2.52363e+15
2.53321e+15
2.53373e+15
2.52266e+15
2.49775e+15
2.46098e+15
2.41835e+15
2.37567e+15
2.33689e+15
2.30445e+15
2.28021e+15
2.26776e+15
0
0
0
0
0
0
0
0
0
0
0
0
0
0
0
0
2.16705e+13
1.20071e+14
3.51216e+14
7.36005e+14
1.26929e+15
1.91285e+15
2.60155e+15
3.25993e+15
3.83085e+15
4.28302e+15
4.60656e+15
4.81684e+15
4.94547e+15
5.02036e+15
5.06069e+15
5.08032e+15
5.08363e+15
5.06489e+15
5.01869e+15
4.94909e+15
4.86717e+15
4.78344e+15
4.70633e+15
4.64215e+15
4.59524e+15
4.57198e+15
0
0
0
0
0
0
0
0
0
0
0
0
0
0
0
2.55917e+12
5.29911e+13
2.6807e+14
7.48344e+14
1.53104e+15
2.60042e+15
3.87612e+15
5.22465e+15
6.5025e+15
7.6055e+15
8.47495e+15
9.09878e+15
9.51199e+15
9.77003e+15
9.91832e+15
9.9969e+15
1.00366e+16
1.00459e+16
1.00131e+16
9.93006e+15
9.80308e+15
9.64884e+15
9.48698e+15
9.33643e+15
9.21192e+15
9.1218e+15
9.07769e+15
0
0
0
0
0
0
0
0
0
0
0
0
0
0
0
6.06988e+12
1.25111e+14
5.85902e+14
1.56508e+15
3.12808e+15
5.23526e+15
7.71946e+15
1.03165e+16
1.27606e+16
1.48605e+16
1.6511e+16
1.77027e+16
1.85051e+16
1.90094e+16
1.92983e+16
1.94537e+16
1.95358e+16
1.95575e+16
1.95011e+16
1.9356e+16
1.91267e+16
1.88384e+16
1.85315e+16
1.82453e+16
1.80093e+16
1.78376e+16
1.77526e+16
0
0
0
0
0
0
0
0
0
0
0
0
0
0
0
1.40536e+13
2.84997e+14
1.25217e+15
3.21377e+15
6.28557e+15
1.03755e+16
1.51386e+16
2.00701e+16
2.46912e+16
2.86476e+16
3.17463e+16
3.39841e+16
3.54916e+16
3.64347e+16
3.69814e+16
3.72863e+16
3.74525e+16
3.75027e+16
3.74141e+16
3.71637e+16
3.67464e+16
3.62129e+16
3.56465e+16
3.5121e+16
3.4688e+16
3.43685e+16
3.42066e+16
0
0
0
0
0
0
0
0
0
0
0
0
0
0
3.97339e+12
3.1667e+13
6.26353e+14
2.61046e+15
6.46713e+15
1.24061e+16
2.02242e+16
2.92353e+16
3.85033e+16
4.71576e+16
5.45345e+16
6.02852e+16
6.4415e+16
6.71633e+16
6.88636e+16
6.98618e+16
7.04341e+16
7.07515e+16
7.0866e+16
7.07373e+16
7.02993e+16
6.95394e+16
6.85701e+16
6.75487e+16
6.66054e+16
6.58261e+16
6.52408e+16
6.49352e+16
0
0
0
0
0
0
0
0
0
0
0
0
0
0
9.31823e+12
6.90635e+13
1.3334e+15
5.32335e+15
1.2776e+16
2.40655e+16
3.8768e+16
5.55961e+16
7.284e+16
8.88624e+16
1.02439e+17
1.12978e+17
1.20498e+17
1.25434e+17
1.28449e+17
1.30216e+17
1.31232e+17
1.31806e+17
1.32045e+17
1.31848e+17
1.31067e+17
1.29699e+17
1.2796e+17
1.26133e+17
1.24453e+17
1.23055e+17
1.21983e+17
1.21406e+17
0
0
0
0
0
0
0
0
0
0
0
0
0
0
2.16788e+13
2.24443e+14
2.8439e+15
1.06228e+16
2.47838e+16
4.59113e+16
7.31372e+16
1.0413e+17
1.35773e+17
1.65e+17
1.89626e+17
2.08684e+17
2.2222e+17
2.31039e+17
2.36379e+17
2.39473e+17
2.41244e+17
2.4227e+17
2.42732e+17
2.42394e+17
2.41015e+17
2.38593e+17
2.35484e+17
2.32205e+17
2.29202e+17
2.2669e+17
2.24745e+17
2.23676e+17
0
0
0
0
0
0
0
0
0
0
0
0
0
4.85226e+12
4.90613e+13
6.60436e+14
5.98282e+15
2.0822e+16
4.72794e+16
8.62105e+16
1.35893e+17
1.92118e+17
2.49246e+17
3.0176e+17
3.45857e+17
3.79904e+17
4.04027e+17
4.19695e+17
4.29124e+17
4.34522e+17
4.37617e+17
4.3944e+17
4.40252e+17
4.39639e+17
4.3723e+17
4.32967e+17
4.27429e+17
4.21574e+17
4.16213e+17
4.11726e+17
4.08271e+17
4.06369e+17
0
0
0
0
0
0
0
0
0
0
0
0
0
1.15962e+13
1.08818e+14
1.69367e+15
1.22857e+16
4.01126e+16
8.87612e+16
1.59411e+17
2.48746e+17
3.49161e+17
4.50626e+17
5.43567e+17
6.21456e+17
6.81504e+17
7.24048e+17
7.51732e+17
7.68407e+17
7.77959e+17
7.83506e+17
7.86794e+17
7.88243e+17
7.8719e+17
7.82954e+17
7.75413e+17
7.65628e+17
7.55277e+17
7.45782e+17
7.37882e+17
7.31892e+17
7.28637e+17
0
0
0
0
0
0
0
0
0
0
0
0
0
2.70604e+13
2.3531e+14
3.95677e+15
2.46042e+16
7.59667e+16
1.64035e+17
2.90353e+17
4.48734e+17
6.2553e+17
8.03199e+17
9.65472e+17
1.10128e+18
1.20587e+18
1.28002e+18
1.32847e+18
1.35795e+18
1.37511e+18
1.38522e+18
1.3912e+18
1.39382e+18
1.39202e+18
1.38445e+18
1.37108e+18
1.35388e+18
1.3357e+18
1.31904e+18
1.30534e+18
1.2951e+18
1.28961e+18
0
0
0
0
0
0
0
0
0
0
0
0
4.87183e+12
6.08769e+13
4.89844e+14
8.66414e+15
4.81332e+16
1.41438e+17
2.98478e+17
5.21224e+17
7.98257e+17
1.1054e+18
1.41254e+18
1.69241e+18
1.92642e+18
2.10651e+18
2.23423e+18
2.3181e+18
2.36984e+18
2.40044e+18
2.41869e+18
2.42953e+18
2.43429e+18
2.43115e+18
2.41771e+18
2.39434e+18
2.36442e+18
2.33291e+18
2.3042e+18
2.2809e+18
2.26355e+18
2.25434e+18
0
0
0
0
0
0
0
0
0
0
0
0
1.15295e+13
1.3097e+14
9.90951e+14
1.80819e+16
9.20711e+16
2.58974e+17
5.35247e+17
9.23127e+17
1.40164e+18
1.92875e+18
2.45361e+18
2.93069e+18
3.32893e+18
3.63512e+18
3.85264e+18
3.99621e+18
4.08553e+18
4.13885e+18
4.17089e+18
4.19009e+18
4.19855e+18
4.19321e+18
4.17007e+18
4.12986e+18
4.0785e+18
4.02479e+18
3.97608e+18
3.93686e+18
3.90764e+18
3.89226e+18
0
0
0
0
0
0
0
0
0
0
0
0
2.58632e+13
2.71462e+14
1.97334e+15
3.63373e+16
1.72498e+17
4.6692e+17
9.46717e+17
1.61348e+18
2.42971e+18
3.32379e+18
4.21075e+18
5.01472e+18
5.68405e+18
6.19815e+18
6.56423e+18
6.80649e+18
6.95717e+18
7.04814e+18
7.10297e+18
7.1359e+18
7.1506e+18
7.14203e+18
7.1036e+18
7.03619e+18
6.95046e+18
6.86106e+18
6.7798e+18
6.71415e+18
6.66501e+18
6.63922e+18
0
0
0
0
0
0
0
0
0
0
0
0
5.55475e+13
5.54449e+14
3.85571e+15
7.08265e+16
3.17502e+17
8.30394e+17
1.65332e+18
2.7854e+18
4.16123e+18
5.66052e+18
7.14224e+18
8.4809e+18
9.5926e+18
1.04458e+19
1.10535e+19
1.14542e+19
1.17016e+19
1.18535e+19
1.19449e+19
1.19988e+19
1.20224e+19
1.20078e+19
1.19452e+19
1.18361e+19
1.16979e+19
1.15529e+19
1.14196e+19
1.13105e+19
1.12281e+19
1.11843e+19
0
0
0
0
0
0
0
0
0
0
0
8.11964e+12
1.18116e+14
1.12016e+15
7.38541e+15
1.34951e+17
5.75826e+17
1.45816e+18
2.85228e+18
4.75141e+18
7.04289e+18
9.52669e+18
1.19709e+19
1.41714e+19
1.5995e+19
1.73933e+19
1.83876e+19
1.90403e+19
1.944e+19
1.96878e+19
1.98347e+19
1.99197e+19
1.99548e+19
1.99299e+19
1.98306e+19
1.966e+19
1.94429e+19
1.92115e+19
1.89967e+19
1.88188e+19
1.86836e+19
1.86102e+19
0
0
0
0
0
0
0
0
0
0
0
1.86644e+13
2.52508e+14
2.22601e+15
1.39781e+16
2.52523e+17
1.03038e+18
2.52955e+18
4.86244e+18
8.01011e+18
1.1781e+19
1.58443e+19
1.98234e+19
2.33927e+19
2.63426e+19
2.85977e+19
3.01967e+19
3.12494e+19
3.18933e+19
3.22859e+19
3.25123e+19
3.26439e+19
3.26958e+19
3.26559e+19
3.25019e+19
3.22371e+19
3.18951e+19
3.15266e+19
3.11843e+19
3.09012e+19
3.06869e+19
3.05683e+19
0
0
0
0
0
0
0
0
0
0
0
4.28047e+13
5.25129e+14
4.36184e+15
2.75992e+16
4.63257e+17
1.81417e+18
4.32862e+18
8.18112e+18
1.33315e+19
1.94582e+19
2.60188e+19
3.24111e+19
3.81224e+19
4.28245e+19
4.64043e+19
4.89339e+19
5.06049e+19
5.16306e+19
5.22428e+19
5.25913e+19
5.27958e+19
5.28777e+19
5.28214e+19
5.25861e+19
5.21714e+19
5.16277e+19
5.10429e+19
5.05037e+19
5.00655e+19
4.97397e+19
4.95584e+19
0
0
0
0
0
0
0
0
0
0
5.78463e+12
9.8063e+13
1.0976e+15
8.60762e+15
7.51853e+16
8.53732e+17
3.13664e+18
7.29444e+18
1.35796e+19
2.19036e+19
3.17246e+19
4.21721e+19
5.23002e+19
6.13067e+19
6.86882e+19
7.42867e+19
7.82247e+19
8.08143e+19
8.24162e+19
8.33581e+19
8.38964e+19
8.42096e+19
8.4347e+19
8.42745e+19
8.39142e+19
8.32573e+19
8.23929e+19
8.14736e+19
8.06338e+19
7.997e+19
7.94888e+19
7.92261e+19
0
0
0
0
0
0
0
0
0
0
1.4412e+13
2.18139e+14
2.24197e+15
1.64254e+16
1.80558e+17
1.55099e+18
5.34487e+18
1.21237e+19
2.2243e+19
3.54977e+19
5.09955e+19
6.73814e+19
8.31791e+19
9.71479e+19
1.08545e+20
1.17163e+20
1.23201e+20
1.27143e+20
1.29602e+20
1.31031e+20
1.31862e+20
1.32347e+20
1.32587e+20
1.32499e+20
1.31949e+20
1.30921e+20
1.29577e+20
1.2816e+20
1.26871e+20
1.25874e+20
1.25165e+20
1.24794e+20
0
0
0
0
0
0
0
0
0
0
3.35362e+13
4.58982e+14
4.42036e+15
3.0443e+16
3.90462e+17
2.76405e+18
8.98058e+18
1.98834e+19
3.59352e+19
5.67041e+19
8.07738e+19
1.06048e+20
1.30248e+20
1.51526e+20
1.68814e+20
1.81831e+20
1.90916e+20
1.96814e+20
2.0049e+20
2.02629e+20
2.03898e+20
2.0465e+20
2.05043e+20
2.0491e+20
2.04076e+20
2.02513e+20
2.00492e+20
1.98357e+20
1.96405e+20
1.94901e+20
1.93832e+20
1.933e+20
0
0
0
0
0
0
0
0
0
0
7.30231e+13
9.40052e+14
8.40072e+15
5.46865e+16
7.8725e+17
4.82921e+18
1.48615e+19
3.21193e+19
5.71558e+19
8.91665e+19
1.2591e+20
1.64133e+20
2.00443e+20
2.32201e+20
2.57894e+20
2.77141e+20
2.90519e+20
2.99153e+20
3.04498e+20
3.07684e+20
3.09594e+20
3.10737e+20
3.11314e+20
3.11085e+20
3.09854e+20
3.07579e+20
3.04637e+20
3.01486e+20
2.98579e+20
2.9631e+20
2.94669e+20
2.93872e+20
0
0
0
0
0
0
0
0
0
9.17525e+12
1.59575e+14
1.87886e+15
1.54953e+16
9.69303e+16
1.52128e+18
8.30825e+18
2.42638e+19
5.11436e+19
8.95472e+19
1.38037e+20
1.93035e+20
2.49605e+20
3.02867e+20
3.49122e+20
3.86298e+20
4.13998e+20
4.33176e+20
4.45476e+20
4.52975e+20
4.57525e+20
4.60247e+20
4.61868e+20
4.62607e+20
4.62197e+20
4.60426e+20
4.57248e+20
4.53102e+20
4.48579e+20
4.44361e+20
4.41e+20
4.3852e+20
4.37308e+20
0
0
0
0
0
0
0
0
0
2.18959e+13
3.38913e+14
3.61071e+15
2.8337e+16
1.7006e+17
2.85166e+18
1.41114e+19
3.91205e+19
8.02798e+19
1.38095e+20
2.10007e+20
2.90404e+20
3.72063e+20
4.48131e+20
5.13513e+20
5.65583e+20
6.04145e+20
6.3073e+20
6.47696e+20
6.57878e+20
6.64054e+20
6.67705e+20
6.69849e+20
6.70709e+20
6.70025e+20
6.67495e+20
6.63147e+20
6.57443e+20
6.51158e+20
6.45251e+20
6.40459e+20
6.36852e+20
6.35027e+20
0
0
0
0
0
0
0
0
0
5.00279e+13
6.88172e+14
6.93896e+15
5.16297e+16
2.93571e+17
5.2196e+18
2.36923e+19
6.22918e+19
1.24161e+20
2.09361e+20
3.13414e+20
4.2781e+20
5.42322e+20
6.47573e+20
7.36909e+20
8.07282e+20
8.58901e+20
8.94181e+20
9.16605e+20
9.29906e+20
9.37829e+20
9.42375e+20
9.44972e+20
9.45855e+20
9.4481e+20
9.41296e+20
9.35495e+20
9.27895e+20
9.19549e+20
9.11687e+20
9.05283e+20
9.00406e+20
8.97826e+20
0
0
0
0
0
0
0
0
5.96209e+12
1.05916e+14
1.3809e+15
1.30132e+16
9.09877e+16
4.95371e+17
9.25585e+18
3.89887e+19
9.73356e+19
1.88199e+20
3.10522e+20
4.56822e+20
6.14624e+20
7.69809e+20
9.1012e+20
1.02753e+21
1.11885e+21
1.18482e+21
1.22919e+21
1.25728e+21
1.27378e+21
1.28332e+21
1.28854e+21
1.29137e+21
1.29209e+21
1.29054e+21
1.28575e+21
1.27812e+21
1.26822e+21
1.25744e+21
1.24727e+21
1.23906e+21
1.23278e+21
1.22932e+21
0
0
0
0
0
0
0
0
1.30752e+13
2.20604e+14
2.64516e+15
2.32599e+16
1.55384e+17
8.02149e+17
1.57841e+19
6.25657e+19
1.48698e+20
2.78559e+20
4.48973e+20
6.48155e+20
8.58454e+20
1.06116e+21
1.24119e+21
1.38959e+21
1.50351e+21
1.58472e+21
1.63848e+21
1.67205e+21
1.69127e+21
1.70212e+21
1.70786e+21
1.71083e+21
1.71131e+21
1.70902e+21
1.70288e+21
1.69344e+21
1.68134e+21
1.66814e+21
1.65559e+21
1.64557e+21
1.63793e+21
1.63363e+21
0
0
0
0
0
0
0
0
2.73056e+13
4.13813e+14
4.62943e+15
3.93007e+16
2.54614e+17
2.34453e+18
2.661e+19
9.62998e+19
2.19601e+20
3.99697e+20
6.29583e+20
8.91576e+20
1.16157e+21
1.41587e+21
1.6368e+21
1.81492e+21
1.94862e+21
2.0419e+21
2.10228e+21
2.13898e+21
2.15938e+21
2.17053e+21
2.17635e+21
2.17914e+21
2.17887e+21
2.17504e+21
2.16707e+21
2.15551e+21
2.14121e+21
2.12576e+21
2.11108e+21
2.09954e+21
2.09074e+21
2.08578e+21
0
0
0
0
0
0
0
0
5.00688e+13
7.10036e+14
7.68498e+15
6.20506e+16
3.85747e+17
5.32805e+18
4.31249e+19
1.43184e+20
3.14042e+20
5.55769e+20
8.54935e+20
1.18597e+21
1.5181e+21
1.82387e+21
2.08434e+21
2.2905e+21
2.44254e+21
2.54714e+21
2.61426e+21
2.65485e+21
2.67761e+21
2.68982e+21
2.69608e+21
2.69866e+21
2.69764e+21
2.69243e+21
2.68293e+21
2.66932e+21
2.65295e+21
2.63527e+21
2.61827e+21
2.60468e+21
2.59449e+21
2.58881e+21
0
0
0
0
0
0
0
0
8.42852e+13
1.16268e+15
1.18333e+16
9.13888e+16
5.59604e+17
1.05596e+19
6.75872e+19
2.06199e+20
4.34062e+20
7.46242e+20
1.12156e+21
1.52598e+21
1.9212e+21
2.2745e+21
2.56632e+21
2.79095e+21
2.95203e+21
3.05955e+21
3.12548e+21
3.16329e+21
3.18424e+21
3.19562e+21
3.2014e+21
3.20318e+21
3.20107e+21
3.19463e+21
3.18388e+21
3.16899e+21
3.15166e+21
3.13321e+21
3.11566e+21
3.10165e+21
3.09085e+21
3.08499e+21
0
0
0
0
0
0
0
8.01973e+12
1.40015e+14
1.78547e+15
1.72015e+16
1.31242e+17
7.88432e+17
1.89694e+19
1.0227e+20
2.88125e+20
5.82641e+20
9.7437e+20
1.43118e+21
1.90589e+21
2.35055e+21
2.73272e+21
3.03942e+21
3.27051e+21
3.43331e+21
3.53905e+21
3.60117e+21
3.63455e+21
3.65202e+21
3.6612e+21
3.6656e+21
3.6662e+21
3.66298e+21
3.65538e+21
3.64352e+21
3.62757e+21
3.60959e+21
3.59079e+21
3.5733e+21
3.55919e+21
3.54835e+21
3.54242e+21
0
0
0
0
0
0
0
1.38539e+13
2.1976e+14
2.61791e+15
2.51357e+16
1.8784e+17
1.08689e+18
3.18244e+19
1.50868e+20
3.94536e+20
7.64808e+20
1.23839e+21
1.76685e+21
2.29171e+21
2.76646e+21
3.16476e+21
3.47666e+21
3.70496e+21
3.86023e+21
3.95714e+21
4.01147e+21
4.03859e+21
4.05102e+21
4.05651e+21
4.05851e+21
4.05762e+21
4.05344e+21
4.04495e+21
4.03235e+21
4.01589e+21
3.99771e+21
3.9789e+21
3.96164e+21
3.94777e+21
3.93722e+21
3.93151e+21
0
0
0
0
0
0
0
2.2845e+13
3.33386e+14
3.98795e+15
3.70744e+16
2.63341e+17
1.4624e+18
5.18477e+19
2.20023e+20
5.31208e+20
9.78214e+20
1.52206e+21
2.102e+21
2.65826e+21
3.14826e+21
3.54876e+21
3.85279e+21
4.06699e+21
4.20633e+21
4.28896e+21
4.33239e+21
4.35167e+21
4.3582e+21
4.35923e+21
4.3581e+21
4.35512e+21
4.34956e+21
4.34011e+21
4.32703e+21
4.31081e+21
4.29319e+21
4.27515e+21
4.25868e+21
4.24554e+21
4.23567e+21
4.23042e+21
0
0
0
0
0
0
0
3.36816e+13
5.07621e+14
5.86567e+15
5.16734e+16
3.63138e+17
5.87652e+18
8.52623e+19
3.12232e+20
6.94124e+20
1.20889e+21
1.80461e+21
2.416e+21
2.98539e+21
3.47432e+21
3.86261e+21
4.14669e+21
4.33815e+21
4.45583e+21
4.51992e+21
4.54897e+21
4.55812e+21
4.55759e+21
4.55386e+21
4.5497e+21
4.54495e+21
4.5384e+21
4.52871e+21
4.51597e+21
4.50067e+21
4.48375e+21
4.46621e+21
4.44995e+21
4.43707e+21
4.42791e+21
4.42339e+21
0
0
0
0
0
0
0
5.10869e+13
7.43892e+14
8.10176e+15
7.03195e+16
4.90389e+17
1.94117e+19
1.38145e+20
4.23827e+20
8.6918e+20
1.4358e+21
2.06384e+21
2.68841e+21
3.25481e+21
3.72774e+21
4.09109e+21
4.34748e+21
4.51327e+21
4.61169e+21
4.66631e+21
4.69161e+21
4.69571e+21
4.69298e+21
4.6868e+21
4.67938e+21
4.67125e+21
4.66147e+21
4.64921e+21
4.63463e+21
4.6188e+21
4.60324e+21
4.58877e+21
4.57638e+21
4.56592e+21
4.5568e+21
4.55122e+21
0
0
0
0
0
0
0
6.3006e+13
8.73809e+14
9.70041e+15
8.59189e+16
5.93956e+17
4.05952e+19
2.06396e+20
5.45109e+20
1.03904e+21
1.63935e+21
2.28138e+21
2.90274e+21
3.45283e+21
3.90018e+21
4.23555e+21
4.46747e+21
4.61642e+21
4.70415e+21
4.7387e+21
4.73827e+21
4.73469e+21
4.72872e+21
4.72218e+21
4.71502e+21
4.70706e+21
4.69812e+21
4.68738e+21
4.6745e+21
4.65983e+21
4.64414e+21
4.62885e+21
4.61533e+21
4.60492e+21
4.5976e+21
4.59411e+21
0
0
0
0
0
0
0
6.26556e+13
9.39129e+14
1.09276e+16
9.91632e+16
6.82855e+17
6.75786e+19
2.84253e+20
6.65228e+20
1.18818e+21
1.80175e+21
2.44259e+21
3.05064e+21
3.57901e+21
4.00211e+21
4.31568e+21
4.53143e+21
4.66766e+21
4.73862e+21
4.76134e+21
4.76168e+21
4.75452e+21
4.7464e+21
4.73857e+21
4.73101e+21
4.72312e+21
4.71432e+21
4.70391e+21
4.69145e+21
4.67709e+21
4.6615e+21
4.64609e+21
4.63265e+21
4.62246e+21
4.61573e+21
4.61298e+21
0
0
0
0
0
0
0
5.69906e+13
8.79513e+14
1.07006e+16
1.02028e+17
8.84884e+18
1.04398e+20
3.60061e+20
7.71105e+20
1.3086e+21
1.92242e+21
2.55226e+21
3.14188e+21
3.65018e+21
4.05594e+21
4.35703e+21
4.56396e+21
4.69188e+21
4.75351e+21
4.77266e+21
4.77305e+21
4.76478e+21
4.7552e+21
4.74656e+21
4.73857e+21
4.73059e+21
4.72174e+21
4.71126e+21
4.69875e+21
4.68439e+21
4.6689e+21
4.6536e+21
4.64035e+21
4.63015e+21
4.62343e+21
4.62088e+21
0
0
0
0
0
0
0
4.37355e+13
7.35895e+14
9.76047e+15
9.85188e+16
2.33025e+19
1.48516e+20
4.31182e+20
8.60277e+20
1.40316e+21
2.01024e+21
2.62542e+21
3.19802e+21
3.69166e+21
4.08762e+21
4.38263e+21
4.58501e+21
4.70783e+21
4.76423e+21
4.78045e+21
4.78025e+21
4.77167e+21
4.76147e+21
4.7524e+21
4.74405e+21
4.73582e+21
4.72678e+21
4.71609e+21
4.70336e+21
4.68885e+21
4.67334e+21
4.6581e+21
4.64485e+21
4.63446e+21
4.62751e+21
4.62496e+21
0
0
0
0
0
0
0
2.88319e+13
5.61206e+14
8.43334e+15
9.09338e+16
4.08919e+19
1.96067e+20
4.98465e+20
9.37167e+20
1.47969e+21
2.07767e+21
2.67926e+21
3.23897e+21
3.72327e+21
4.11349e+21
4.40481e+21
4.60361e+21
4.72254e+21
4.77527e+21
4.78864e+21
4.7871e+21
4.7781e+21
4.76732e+21
4.75773e+21
4.74923e+21
4.74079e+21
4.73155e+21
4.72066e+21
4.70773e+21
4.69302e+21
4.67737e+21
4.66198e+21
4.64846e+21
4.63764e+21
4.63027e+21
4.62754e+21
0
0
0
0
0
0
0
1.78395e+13
4.1356e+14
7.01076e+15
2.31809e+17
5.9518e+19
2.44052e+20
5.62422e+20
1.00598e+21
1.54493e+21
2.13365e+21
2.72429e+21
3.27502e+21
3.75297e+21
4.13864e+21
4.4265e+21
4.62239e+21
4.73844e+21
4.78694e+21
4.79671e+21
4.794e+21
4.78467e+21
4.77334e+21
4.76317e+21
4.75452e+21
4.74596e+21
4.7365e+21
4.72542e+21
4.71232e+21
4.69746e+21
4.68161e+21
4.6659e+21
4.65189e+21
4.64043e+21
4.63244e+21
4.62934e+21
0
0
0
0
0
0
0
0
3.16216e+14
5.98268e+15
6.71332e+18
8.25507e+19
2.8609e+20
6.18302e+20
1.06606e+21
1.60075e+21
2.18162e+21
2.76385e+21
3.30798e+21
3.78091e+21
4.16298e+21
4.4484e+21
4.64185e+21
4.75361e+21
4.79789e+21
4.80541e+21
4.80143e+21
4.79173e+21
4.78035e+21
4.76954e+21
4.75991e+21
4.75097e+21
4.7415e+21
4.73035e+21
4.71714e+21
4.70215e+21
4.68608e+21
4.66996e+21
4.65533e+21
4.64317e+21
4.63449e+21
4.6309e+21
0
0
0
0
0
0
0
0
2.7204e+14
5.21515e+15
1.49478e+19
1.06444e+20
3.23545e+20
6.65095e+20
1.11516e+21
1.64597e+21
2.22047e+21
2.79659e+21
3.33506e+21
3.80444e+21
4.18462e+21
4.46879e+21
4.66015e+21
4.76661e+21
4.80788e+21
4.81534e+21
4.81011e+21
4.7998e+21
4.78811e+21
4.77675e+21
4.76642e+21
4.75681e+21
4.74686e+21
4.73539e+21
4.72199e+21
4.70684e+21
4.69052e+21
4.67408e+21
4.65912e+21
4.64652e+21
4.63724e+21
4.63308e+21
0
0
0
0
0
0
0
0
2.36016e+14
4.35343e+15
2.30772e+19