/*--------------------------------*- C++ -*----------------------------------*\
| =========                 |                                                 |
| \\      /  F ield         | OpenFOAM: The Open Source CFD Toolbox           |
|  \\    /   O peration     | Version:  2406                                  |
|   \\  /    A nd           | Website:  www.openfoam.com                      |
|    \\/     M anipulation  |                                                 |
\*---------------------------------------------------------------------------*/
FoamFile
{
    version     2.0;
    format      ascii;
    arch        "LSB;label=32;scalar=64";
    class       volScalarField;
    location    "0.109";
    object      p;
}
// * * * * * * * * * * * * * * * * * * * * * * * * * * * * * * * * * * * * * //

dimensions      [1 -1 -2 0 0 0 0];

internalField   nonuniform List<scalar> 
8988
(
527.807
527.785
527.74
527.756
527.822
527.802
527.779
527.756
527.772
527.804
527.808
527.807
527.815
527.834
527.856
527.873
527.888
527.903
527.92
527.939
527.958
527.982
528.008
528.036
528.067
528.1
528.138
528.179
528.223
528.27
528.322
528.379
528.438
528.5
528.567
528.637
528.707
528.778
528.846
528.9
528.936
528.992
528.568
528.374
528.321
528.252
528.491
528.469
528.239
528.259
528.404
528.378
528.256
528.248
528.277
528.261
528.233
528.221
528.207
528.19
528.175
528.162
528.153
528.15
528.15
528.152
528.155
528.164
528.179
528.196
528.21
528.223
528.248
528.277
528.3
528.319
528.338
528.359
528.377
528.392
528.399
528.398
528.384
528.396
528.81
528.781
528.976
528.612
528.47
528.91
528.964
528.609
528.541
528.745
528.774
528.629
528.616
528.641
528.62
528.594
528.575
528.555
528.533
528.509
528.486
528.464
528.443
528.419
528.393
528.369
528.351
528.335
528.317
528.297
528.281
528.266
528.246
528.219
528.182
528.142
528.094
528.04
527.982
527.929
527.88
527.867
529.398
529.335
529.519
529.166
528.982
529.44
529.539
529.276
529.025
529.243
529.379
529.213
529.131
529.161
529.152
529.106
529.074
529.043
529.007
528.967
528.924
528.875
528.82
528.761
528.698
528.634
528.565
528.489
528.401
528.311
528.22
528.127
528.028
527.924
527.816
527.703
527.583
527.462
527.348
527.251
527.175
527.134
529.812
530
530.118
530.171
529.936
529.696
529.954
530.102
529.879
529.803
529.881
529.857
529.798
529.77
529.731
529.688
529.64
529.587
529.528
529.465
529.395
529.315
529.224
529.126
529.024
528.912
528.781
528.633
528.477
528.318
528.148
527.966
527.773
527.574
527.372
527.174
526.986
526.812
526.657
526.524
526.426
526.348
530.612
530.635
530.51
530.676
530.873
530.604
530.329
530.492
530.681
530.543
530.412
530.439
530.423
530.35
530.303
530.249
530.181
530.104
530.014
529.92
529.821
529.705
529.565
529.414
529.254
529.076
528.87
528.641
528.402
528.152
527.891
527.621
527.348
527.076
526.807
526.55
526.319
526.112
525.931
525.777
525.657
525.55
531.328
530.99
530.938
530.859
530.97
531.213
531.082
530.805
530.887
530.997
530.892
530.815
530.787
530.718
530.651
530.593
530.52
530.439
530.328
530.208
530.084
529.943
529.773
529.584
529.385
529.162
528.906
528.624
528.326
528.013
527.683
527.342
526.995
526.649
526.312
525.992
525.701
525.445
525.228
525.047
524.905
524.767
531.029
531.111
531.3
531.194
530.956
530.914
531.182
531.17
530.96
530.951
531.004
530.93
530.905
530.824
530.746
530.698
530.628
530.544
530.424
530.293
530.16
530.007
529.825
529.623
529.404
529.157
528.878
528.572
528.245
527.895
527.521
527.129
526.726
526.316
525.91
525.519
525.158
524.841
524.57
524.345
524.177
524.053
530.755
530.824
530.701
530.89
531.06
530.721
530.569
530.799
530.857
530.703
530.622
530.666
530.631
530.567
530.518
530.475
530.405
530.328
530.24
530.126
529.995
529.853
529.696
529.506
529.282
529.027
528.744
528.438
528.107
527.748
527.362
526.951
526.519
526.07
525.61
525.153
524.717
524.323
523.986
523.717
523.527
523.417
530.28
530.176
530.337
530.133
529.976
530.255
530.309
530.126
530.066
530.108
530.08
530.06
530.012
529.967
529.945
529.872
529.81
529.753
529.691
529.607
529.497
529.382
529.258
529.107
528.922
528.709
528.471
528.206
527.907
527.57
527.199
526.795
526.359
525.893
525.402
524.901
524.41
523.955
523.557
523.237
523.009
522.877
529.155
529.374
529.384
529.499
529.445
529.13
529.134
529.421
529.333
529.172
529.175
529.206
529.156
529.085
529.068
529.014
528.959
528.905
528.846
528.777
528.692
528.609
528.52
528.41
528.279
528.138
527.977
527.786
527.556
527.283
526.963
526.597
526.186
525.734
525.248
524.744
524.243
523.765
523.33
522.963
522.691
522.526
528.534
528.233
528.034
528.081
528.403
528.471
528.155
528.061
528.23
528.208
528.095
528.109
528.086
528.016
528.015
527.981
527.922
527.889
527.839
527.775
527.707
527.642
527.579
527.497
527.402
527.309
527.209
527.089
526.942
526.76
526.537
526.263
525.934
525.552
525.125
524.669
524.2
523.734
523.296
522.918
522.624
522.432
527.011
527.077
527.248
526.937
526.733
527.074
527.222
526.962
526.852
526.954
526.921
526.924
526.893
526.798
526.833
526.826
526.761
526.738
526.713
526.66
526.604
526.558
526.513
526.455
526.388
526.317
526.242
526.157
526.063
525.956
525.833
525.683
525.497
525.262
524.97
524.624
524.235
523.824
523.414
523.045
522.753
522.569
525.454
525.771
525.932
525.939
525.601
525.404
525.756
525.819
525.642
525.568
525.596
525.651
525.611
525.503
525.549
525.553
525.499
525.484
525.467
525.436
525.402
525.37
525.34
525.306
525.266
525.218
525.163
525.104
525.04
524.975
524.913
524.856
524.8
524.734
524.64
524.492
524.271
523.99
523.672
523.362
523.104
522.93
524.325
524.343
524.148
524.498
524.671
524.25
524.094
524.356
524.419
524.252
524.205
524.303
524.256
524.191
524.229
524.211
524.173
524.177
524.165
524.139
524.126
524.109
524.09
524.076
524.057
524.031
524.008
523.987
523.967
523.95
523.945
523.956
523.987
524.039
524.102
524.152
524.163
524.112
523.998
523.828
523.655
523.522
523.281
522.906
522.78
522.836
523.063
523.166
522.907
522.828
522.994
522.928
522.873
522.909
522.835
522.866
522.893
522.822
522.809
522.824
522.817
522.801
522.79
522.793
522.8
522.803
522.802
522.808
522.828
522.853
522.881
522.918
522.972
523.049
523.151
523.284
523.453
523.653
523.869
524.066
524.202
524.287
524.306
524.285
521.437
521.592
521.808
521.603
521.364
521.464
521.653
521.562
521.462
521.469
521.533
521.467
521.411
521.495
521.461
521.416
521.45
521.451
521.444
521.455
521.463
521.479
521.504
521.531
521.563
521.606
521.664
521.736
521.818
521.914
522.031
522.173
522.343
522.55
522.801
523.105
523.461
523.852
524.237
524.574
524.827
524.973
520.057
520.132
520.049
520.328
520.384
520.004
519.95
520.216
520.169
520.065
520.116
520.077
520.079
520.122
520.07
520.078
520.134
520.112
520.099
520.137
520.173
520.198
520.238
520.296
520.366
520.448
520.545
520.659
520.793
520.947
521.127
521.337
521.58
521.862
522.192
522.579
523.026
523.53
524.07
524.578
524.982
525.26
519.071
518.749
518.683
518.807
518.865
518.856
518.781
518.776
518.809
518.778
518.778
518.778
518.771
518.816
518.798
518.788
518.845
518.856
518.853
518.902
518.961
519.01
519.073
519.159
519.263
519.379
519.51
519.662
519.842
520.052
520.294
520.57
520.884
521.241
521.645
522.101
522.609
523.16
523.741
524.321
524.801
525.154
517.452
517.632
517.839
517.615
517.36
517.487
517.725
517.611
517.515
517.569
517.584
517.58
517.56
517.597
517.62
517.613
517.65
517.687
517.721
517.781
517.852
517.928
518.017
518.127
518.255
518.401
518.569
518.764
518.989
519.248
519.544
519.877
520.25
520.666
521.126
521.627
522.163
522.723
523.288
523.824
524.245
524.61
516.237
516.583
516.66
516.65
516.586
516.331
516.487
516.622
516.501
516.488
516.525
516.527
516.53
516.542
516.574
516.611
516.63
516.672
516.745
516.814
516.877
516.964
517.08
517.215
517.364
517.536
517.74
517.976
518.239
518.533
518.865
519.238
519.651
520.102
520.588
521.102
521.634
522.163
522.659
523.081
523.341
523.631
515.698
515.647
515.84
515.485
515.334
515.67
515.869
515.596
515.502
515.66
515.658
515.622
515.665
515.67
515.693
515.75
515.77
515.811
515.894
515.975
516.048
516.148
516.28
516.432
516.596
516.786
517.013
517.272
517.556
517.872
518.227
518.618
519.043
519.499
519.981
520.473
520.958
521.406
521.781
522.068
522.188
522.395
514.734
514.99
515.057
515.009
514.839
514.78
514.982
514.977
514.867
514.932
514.944
514.939
514.98
514.986
515.021
515.08
515.102
515.14
515.219
515.304
515.383
515.482
515.611
515.769
515.946
516.149
516.379
516.635
516.916
517.233
517.589
517.975
518.384
518.811
519.245
519.668
520.058
520.39
520.64
520.816
520.873
521.03
514.031
514.501
514.698
514.627
514.355
514.098
514.403
514.582
514.43
514.381
514.464
514.472
514.448
514.479
514.524
514.551
514.586
514.638
514.704
514.785
514.878
514.977
515.09
515.228
515.391
515.58
515.796
516.035
516.301
516.595
516.918
517.262
517.616
517.969
518.311
518.628
518.909
519.139
519.306
519.42
519.45
519.586
513.808
514.252
514.474
514.194
513.743
513.871
514.277
514.225
514.015
514.081
514.183
514.131
514.094
514.158
514.198
514.185
514.209
514.264
514.321
514.383
514.459
514.546
514.647
514.771
514.914
515.072
515.248
515.446
515.668
515.908
516.162
516.422
516.68
516.933
517.172
517.392
517.586
517.748
517.868
517.948
517.957
518.077
514.014
513.835
513.715
513.824
513.96
513.898
513.824
513.865
513.884
513.845
513.868
513.87
513.851
513.912
513.939
513.933
513.965
514.006
514.039
514.08
514.132
514.19
514.262
514.354
514.458
514.568
514.683
514.814
514.959
515.117
515.279
515.442
515.603
515.761
515.911
516.05
516.175
516.285
516.369
516.423
516.417
516.519
514.2
513.573
513.3
513.618
513.968
513.999
513.528
513.591
513.814
513.738
513.724
513.729
513.711
513.736
513.741
513.741
513.754
513.767
513.786
513.811
513.831
513.849
513.879
513.923
513.967
514.012
514.062
514.118
514.178
514.241
514.306
514.373
514.444
514.517
514.589
514.656
514.72
514.78
514.829
514.86
514.846
514.93
513.627
513.582
513.721
513.507
513.394
513.557
513.689
513.595
513.493
513.571
513.582
513.541
513.546
513.543
513.53
513.525
513.512
513.499
513.496
513.488
513.47
513.45
513.437
513.425
513.407
513.386
513.368
513.353
513.338
513.316
513.294
513.276
513.262
513.253
513.248
513.247
513.251
513.262
513.275
513.283
513.261
513.33
513.327
513.245
513.185
513.404
513.545
513.214
513.112
513.303
513.382
513.25
513.234
513.249
513.226
513.197
513.179
513.157
513.122
513.091
513.063
513.022
512.969
512.917
512.872
512.82
512.755
512.685
512.612
512.534
512.447
512.353
512.261
512.172
512.086
512.002
511.923
511.853
511.8
511.763
511.737
511.713
511.674
511.732
512.508
512.944
513.117
513.04
512.611
512.575
512.902
512.901
512.736
512.754
512.765
512.723
512.698
512.669
512.634
512.595
512.549
512.505
512.463
512.411
512.343
512.272
512.197
512.107
512.006
511.896
511.779
511.653
511.516
511.37
511.219
511.069
510.921
510.776
510.633
510.501
510.39
510.301
510.229
510.168
510.106
510.148
512.425
512.06
512.155
511.721
511.767
512.249
512.441
511.901
511.854
512.075
512.018
511.964
511.938
511.898
511.889
511.849
511.783
511.741
511.695
511.621
511.544
511.467
511.375
511.266
511.147
511.02
510.879
510.72
510.548
510.367
510.174
509.973
509.77
509.573
509.379
509.195
509.03
508.886
508.763
508.665
508.577
508.595
511.592
511.038
510.982
510.733
511.057
511.419
511.312
510.848
510.977
511.179
511.025
511.016
511.001
510.938
510.946
510.895
510.825
510.804
510.75
510.655
510.582
510.505
510.398
510.275
510.148
510.018
509.87
509.699
509.514
509.318
509.102
508.871
508.633
508.396
508.161
507.935
507.724
507.528
507.355
507.217
507.1
507.087
509.662
510.034
510.247
510.258
509.944
509.569
509.835
510.177
509.983
509.79
509.852
509.913
509.83
509.8
509.805
509.733
509.687
509.668
509.592
509.506
509.45
509.378
509.274
509.154
509.032
508.901
508.752
508.584
508.4
508.2
507.978
507.739
507.488
507.231
506.97
506.713
506.463
506.224
506.007
505.834
505.693
505.645
508.598
508.569
508.514
508.775
508.919
508.502
508.342
508.618
508.726
508.543
508.519
508.548
508.496
508.482
508.458
508.409
508.377
508.337
508.276
508.212
508.144
508.066
507.983
507.883
507.779
507.657
507.517
507.362
507.188
506.994
506.78
506.549
506.306
506.049
505.78
505.506
505.233
504.968
504.724
504.524
504.367
504.286
507.456
507.168
507.27
506.897
506.893
507.332
507.433
507.081
506.959
507.146
507.158
507.057
507.052
507.039
506.999
506.981
506.934
506.881
506.846
506.796
506.723
506.65
506.576
506.484
506.391
506.283
506.163
506.026
505.87
505.696
505.505
505.296
505.07
504.826
504.565
504.293
504.018
503.749
503.499
503.287
503.12
503.018
505.4
505.643
505.76
505.664
505.415
505.392
505.624
505.647
505.49
505.472
505.536
505.485
505.466
505.446
505.43
505.413
505.355
505.311
505.287
505.244
505.19
505.137
505.073
504.991
504.905
504.811
504.708
504.589
504.452
504.301
504.137
503.956
503.758
503.54
503.305
503.056
502.801
502.55
502.313
502.108
501.945
501.837
504.171
503.751
503.565
503.868
504.167
504.205
503.692
503.636
503.914
503.971
503.82
503.8
503.817
503.773
503.764
503.757
503.709
503.686
503.666
503.619
503.567
503.52
503.465
503.402
503.331
503.255
503.17
503.069
502.954
502.829
502.692
502.54
502.373
502.191
501.994
501.784
501.566
501.35
501.145
500.966
500.826
500.726
502.296
502.159
502.359
501.93
501.863
502.282
502.388
502.04
501.972
502.164
502.172
502.083
502.08
502.063
502.062
502.028
501.989
501.981
501.952
501.913
501.883
501.843
501.788
501.737
501.686
501.628
501.556
501.474
501.385
501.288
501.181
501.062
500.932
500.791
500.637
500.473
500.303
500.134
499.974
499.837
499.732
499.654
500.017
500.467
500.675
500.649
500.181
499.998
500.403
500.614
500.312
500.222
500.353
500.345
500.282
500.293
500.297
500.243
500.241
500.229
500.177
500.161
500.151
500.108
500.06
500.029
499.995
499.945
499.885
499.826
499.765
499.695
499.617
499.534
499.443
499.343
499.236
499.122
499.005
498.89
498.781
498.692
498.629
498.579
498.595
498.448
498.344
498.703
498.811
498.585
498.255
498.485
498.673
498.572
498.452
498.52
498.486
498.498
498.465
498.442
498.468
498.415
498.382
498.401
498.381
498.33
498.31
498.3
498.267
498.222
498.183
498.148
498.107
498.061
498.016
497.969
497.915
497.855
497.791
497.727
497.665
497.606
497.549
497.506
497.482
497.459
497.189
496.616
496.39
496.417
496.891
497.065
496.717
496.426
496.675
496.838
496.692
496.652
496.681
496.678
496.633
496.661
496.649
496.592
496.609
496.613
496.566
496.548
496.556
496.543
496.506
496.49
496.479
496.456
496.428
496.406
496.39
496.372
496.351
496.33
496.31
496.291
496.276
496.266
496.257
496.255
496.262
496.263
494.958
494.935
495.163
494.683
494.575
495.019
495.161
494.852
494.726
494.9
494.953
494.846
494.863
494.851
494.835
494.87
494.803
494.801
494.851
494.808
494.755
494.773
494.789
494.764
494.741
494.754
494.763
494.75
494.743
494.746
494.75
494.753
494.76
494.773
494.791
494.81
494.83
494.857
494.887
494.92
494.951
494.967
492.673
493.072
493.336
493.355
493.192
492.722
492.834
493.183
493.158
493.01
492.996
493.017
493.049
493.006
493.025
493.048
492.984
493.02
493.058
493.008
492.996
493.02
493.018
493
493.006
493.024
493.027
493.031
493.05
493.072
493.091
493.113
493.145
493.186
493.233
493.282
493.328
493.379
493.433
493.489
493.537
493.565
490.893
491.244
491.532
491.584
491.444
490.844
490.947
491.505
491.507
491.135
491.168
491.287
491.263
491.242
491.249
491.217
491.22
491.253
491.226
491.205
491.233
491.25
491.242
491.244
491.265
491.281
491.287
491.311
491.349
491.383
491.414
491.453
491.504
491.564
491.63
491.697
491.762
491.828
491.896
491.962
492.018
492.053
489.728
489.425
489.547
489.254
489.321
489.622
489.693
489.348
489.37
489.524
489.493
489.445
489.461
489.485
489.446
489.46
489.462
489.426
489.456
489.491
489.469
489.458
489.491
489.525
489.53
489.531
489.56
489.599
489.633
489.671
489.719
489.775
489.836
489.902
489.975
490.053
490.13
490.205
490.278
490.344
490.4
490.438
487.724
487.684
487.972
487.453
487.297
487.781
487.987
487.691
487.499
487.669
487.755
487.684
487.695
487.678
487.625
487.73
487.731
487.616
487.685
487.768
487.709
487.673
487.731
487.789
487.786
487.785
487.833
487.881
487.906
487.941
487.998
488.067
488.134
488.2
488.269
488.349
488.432
488.511
488.581
488.641
488.692
488.73
485.574
486.046
486.226
486.081
485.653
485.659
486.022
486.089
485.812
485.864
485.946
485.91
485.955
485.904
485.896
485.998
485.929
485.866
485.961
485.997
485.921
485.929
485.993
486.025
486.016
486.039
486.093
486.132
486.156
486.193
486.25
486.317
486.385
486.45
486.514
486.588
486.669
486.746
486.809
486.861
486.904
486.939
483.892
484.268
484.465
484.257
483.851
483.864
484.308
484.435
484.009
484.043
484.206
484.164
484.172
484.163
484.197
484.22
484.104
484.136
484.246
484.218
484.141
484.178
484.241
484.251
484.248
484.283
484.326
484.352
484.38
484.419
484.467
484.526
484.59
484.65
484.708
484.773
484.845
484.913
484.969
485.013
485.044
485.073
482.122
482.559
482.733
482.403
482.046
482.235
482.593
482.493
482.262
482.369
482.441
482.394
482.442
482.388
482.432
482.447
482.329
482.404
482.501
482.419
482.378
482.437
482.473
482.454
482.461
482.501
482.531
482.55
482.578
482.613
482.652
482.698
482.749
482.799
482.851
482.908
482.964
483.017
483.063
483.097
483.117
483.14
480.316
480.639
480.865
480.851
480.671
480.206
480.36
480.837
480.96
480.482
480.463
480.667
480.629
480.549
480.654
480.623
480.553
480.619
480.622
480.583
480.626
480.668
480.653
480.64
480.666
480.696
480.706
480.718
480.741
480.77
480.802
480.837
480.871
480.907
480.949
480.993
481.033
481.069
481.101
481.124
481.134
481.152
479.197
478.683
478.464
478.79
478.917
478.766
478.588
478.765
478.981
478.766
478.686
478.862
478.802
478.777
478.839
478.794
478.802
478.827
478.796
478.8
478.822
478.814
478.801
478.814
478.832
478.839
478.844
478.854
478.87
478.889
478.911
478.932
478.952
478.976
479.005
479.032
479.055
479.076
479.094
479.105
479.106
479.119
476.738
477.067
477.118
477.064
476.777
476.68
477.03
477.187
476.852
476.819
477.025
477.002
476.931
476.948
476.935
476.955
476.982
476.94
476.919
476.941
476.943
476.932
476.937
476.953
476.962
476.96
476.956
476.953
476.959
476.969
476.978
476.985
476.994
477.005
477.017
477.027
477.036
477.044
477.048
477.049
477.045
477.053
474.964
474.979
474.94
475.175
475.413
474.862
474.86
475.169
475.091
474.98
475.087
475.103
475.06
475.053
475.073
475.073
475.064
475.078
475.068
475.03
475.024
475.045
475.051
475.034
475.022
475.024
475.023
475.014
475.008
475.006
475.004
475.004
475.002
475
474.995
474.99
474.986
474.98
474.972
474.963
474.954
474.96
473.244
473.157
473.36
472.897
472.76
473.225
473.451
473.189
472.95
473.08
473.155
473.152
473.134
473.13
473.141
473.112
473.098
473.111
473.097
473.085
473.103
473.111
473.087
473.06
473.056
473.062
473.05
473.029
473.017
473.01
472.999
472.987
472.974
472.959
472.944
472.927
472.911
472.893
472.874
472.855
472.838
472.839
470.861
471.315
471.424
471.262
470.802
470.695
471.255
471.517
471.064
470.9
471.117
471.184
471.103
471.167
471.125
471.046
471.101
471.138
471.122
471.115
471.098
471.069
471.055
471.057
471.056
471.044
471.022
471.003
470.986
470.968
470.949
470.932
470.914
470.892
470.866
470.839
470.813
470.786
470.757
470.73
470.704
470.699
469.227
468.915
468.793
469.172
469.339
469.104
468.763
468.996
469.265
469.119
469.022
469.023
469.056
469.153
469.068
469.074
469.142
469.011
468.934
469.04
469.088
468.991
468.969
469.003
469.004
468.969
468.954
468.946
468.92
468.888
468.863
468.843
468.821
468.793
468.759
468.724
468.691
468.657
468.623
468.589
468.557
468.549
466.98
466.985
467.223
466.783
466.65
466.998
467.177
466.911
466.765
466.973
467.065
466.911
466.949
466.984
466.859
466.971
467.07
466.873
466.808
466.941
466.985
466.878
466.87
466.901
466.879
466.837
466.83
466.825
466.791
466.758
466.738
466.719
466.693
466.658
466.621
466.583
466.547
466.511
466.474
466.438
466.401
466.391
464.456
464.899
465.009
464.853
464.536
464.615
464.912
464.907
464.528
464.652
464.919
464.803
464.707
464.753
464.737
464.804
464.787
464.663
464.72
464.796
464.734
464.686
464.712
464.728
464.697
464.671
464.67
464.659
464.625
464.594
464.572
464.55
464.52
464.486
464.453
464.418
464.381
464.345
464.309
464.273
464.235
464.225
462.919
462.361
462.156
462.22
462.675
462.855
462.438
462.209
462.518
462.61
462.506
462.509
462.51
462.529
462.551
462.541
462.507
462.486
462.532
462.549
462.501
462.483
462.501
462.5
462.465
462.442
462.447
462.441
462.411
462.384
462.365
462.342
462.311
462.281
462.255
462.226
462.193
462.16
462.128
462.093
462.056
462.047
460.608
460.063
459.834
459.923
460.444
460.575
460.196
459.832
460.232
460.524
460.196
460.101
460.23
460.269
460.243
460.187
460.256
460.251
460.181
460.215
460.242
460.214
460.209
460.219
460.208
460.192
460.193
460.185
460.158
460.136
460.12
460.097
460.068
460.047
460.03
460.007
459.98
459.954
459.927
459.895
459.858
459.853
457.531
457.989
458.191
457.97
457.546
457.645
457.999
457.988
457.858
457.855
457.839
457.881
457.906
457.941
457.896
457.886
457.992
457.918
457.841
457.92
457.942
457.895
457.902
457.928
457.921
457.902
457.898
457.887
457.867
457.85
457.836
457.819
457.801
457.788
457.774
457.757
457.738
457.721
457.7
457.673
457.638
457.639
455.136
455.518
455.742
455.716
455.569
455.129
455.387
455.725
455.63
455.301
455.48
455.683
455.555
455.553
455.463
455.533
455.645
455.48
455.454
455.587
455.59
455.503
455.541
455.593
455.575
455.546
455.552
455.558
455.546
455.531
455.52
455.512
455.508
455.502
455.491
455.479
455.469
455.461
455.449
455.427
455.393
455.403
452.993
452.975
452.976
453.311
453.434
452.919
452.61
453.084
453.468
453.11
452.993
453.054
453.125
453.162
453.029
453.163
453.231
453.007
453.069
453.22
453.178
453.06
453.138
453.228
453.202
453.146
453.171
453.202
453.19
453.175
453.172
453.176
453.18
453.179
453.174
453.171
453.171
453.171
453.167
453.15
453.113
453.136
450.686
450.62
450.925
450.288
450.244
450.786
450.928
450.46
450.461
450.713
450.713
450.606
450.681
450.713
450.601
450.71
450.752
450.629
450.726
450.798
450.67
450.675
450.774
450.797
450.717
450.717
450.774
450.795
450.782
450.783
450.791
450.799
450.809
450.818
450.823
450.83
450.84
450.848
450.85
450.838
450.795
450.835
448.609
448.07
447.909
447.765
448.084
448.52
448.54
447.841
447.842
448.327
448.367
448.138
448.195
448.278
448.212
448.237
448.197
448.239
448.322
448.235
448.173
448.279
448.347
448.28
448.258
448.311
448.344
448.335
448.341
448.359
448.372
448.385
448.403
448.418
448.433
448.452
448.473
448.489
448.496
448.486
448.433
448.494
446.028
445.475
445.211
445.391
445.892
446.114
445.526
445.273
445.757
445.91
445.627
445.577
445.718
445.717
445.771
445.727
445.67
445.811
445.803
445.656
445.738
445.848
445.8
445.765
445.819
445.867
445.858
445.862
445.891
445.91
445.923
445.946
445.972
445.993
446.014
446.039
446.066
446.09
446.105
446.099
446.03
446.116
443.644
442.852
442.563
442.819
443.469
443.632
442.868
442.757
443.372
443.288
443.01
443.145
443.202
443.195
443.243
443.142
443.199
443.282
443.196
443.213
443.282
443.257
443.253
443.306
443.341
443.335
443.348
443.388
443.416
443.431
443.453
443.48
443.505
443.531
443.561
443.594
443.625
443.651
443.675
443.675
443.586
443.699
441.04
440.211
439.869
440.593
441.115
440.796
440.039
440.414
440.926
440.529
440.456
440.691
440.614
440.615
440.616
440.609
440.667
440.654
440.689
440.726
440.657
440.67
440.767
440.806
440.772
440.778
440.834
440.877
440.889
440.913
440.951
440.984
441.014
441.046
441.082
441.118
441.151
441.181
441.212
441.216
441.105
441.248
438.336
437.716
437.268
438.122
438.654
437.979
437.424
437.999
438.305
437.866
437.921
438.133
438.022
438.035
438.018
438.067
438.084
438.071
438.137
438.114
438.073
438.155
438.222
438.202
438.194
438.24
438.29
438.312
438.336
438.374
438.41
438.442
438.481
438.524
438.566
438.604
438.64
438.675
438.713
438.718
438.587
438.76
435.212
435.207
435.075
435.662
436.022
434.989
434.95
435.665
435.536
435.172
435.412
435.528
435.366
435.418
435.465
435.457
435.444
435.531
435.538
435.47
435.537
435.619
435.604
435.592
435.637
435.686
435.707
435.731
435.772
435.807
435.836
435.874
435.922
435.97
436.014
436.055
436.095
436.135
436.175
436.18
436.032
436.233
432.141
432.763
433.05
433.059
432.734
432.176
432.686
433.141
432.657
432.567
432.871
432.849
432.725
432.823
432.864
432.837
432.87
432.912
432.858
432.889
432.982
432.991
432.969
432.995
433.032
433.054
433.083
433.129
433.168
433.196
433.234
433.283
433.333
433.38
433.424
433.467
433.512
433.555
433.597
433.601
433.437
433.658
429.579
430.409
430.695
430.158
429.423
429.695
430.62
430.486
429.805
430.03
430.28
430.164
430.164
430.265
430.201
430.174
430.325
430.285
430.202
430.323
430.367
430.3
430.329
430.393
430.412
430.424
430.473
430.525
430.552
430.578
430.62
430.671
430.723
430.77
430.811
430.85
430.894
430.934
430.977
430.981
430.802
431.039
427.553
427.385
427.722
427.029
426.809
427.855
428.211
427.272
427.156
427.691
427.556
427.394
427.557
427.558
427.464
427.621
427.714
427.524
427.584
427.733
427.644
427.616
427.728
427.794
427.78
427.797
427.853
427.896
427.919
427.947
427.983
428.027
428.079
428.128
428.165
428.204
428.247
428.282
428.323
428.325
428.134
428.381
425.305
424.456
424.2
424.306
425.115
425.547
424.758
424.281
424.897
424.979
424.703
424.826
424.924
424.829
424.879
425.03
424.921
424.853
425.042
425.073
424.955
424.998
425.105
425.144
425.134
425.135
425.166
425.223
425.274
425.294
425.314
425.358
425.412
425.454
425.487
425.527
425.569
425.598
425.638
425.641
425.439
425.694
422.354
421.732
421.362
422.387
423.048
422.368
421.45
422.072
422.561
422.013
422.015
422.36
422.196
422.11
422.287
422.267
422.177
422.314
422.372
422.308
422.301
422.344
422.405
422.452
422.455
422.433
422.466
422.545
422.597
422.597
422.62
422.677
422.726
422.755
422.785
422.823
422.861
422.887
422.927
422.93
422.721
422.985
418.822
419.376
419.633
419.681
419.35
418.817
419.306
419.874
419.378
419.19
419.484
419.522
419.422
419.459
419.526
419.495
419.53
419.58
419.582
419.588
419.59
419.641
419.722
419.748
419.701
419.705
419.788
419.865
419.878
419.886
419.938
419.989
420.011
420.032
420.064
420.097
420.127
420.146
420.186
420.19
419.973
420.245
416.063
416.907
417.304
416.738
415.926
416.139
417.224
417.059
416.33
416.559
416.806
416.69
416.707
416.787
416.777
416.854
416.834
416.823
416.922
416.878
416.81
416.943
417.052
417.007
416.936
417.004
417.107
417.139
417.117
417.155
417.228
417.267
417.277
417.292
417.318
417.348
417.374
417.384
417.426
417.43
417.204
417.479
414.24
413.866
413.999
413.353
413.488
414.448
414.351
413.631
413.806
414.1
413.988
413.916
414.039
414.062
414.098
414.096
414.07
414.203
414.197
414.051
414.137
414.293
414.289
414.19
414.248
414.357
414.403
414.363
414.378
414.446
414.489
414.492
414.503
414.528
414.555
414.58
414.604
414.605
414.648
414.651
414.414
414.691
411.65
410.923
410.533
411.081
411.576
411.198
410.882
411.198
411.368
411.151
411.177
411.323
411.278
411.252
411.396
411.357
411.301
411.462
411.385
411.281
411.478
411.582
411.419
411.402
411.533
411.625
411.594
411.584
411.65
411.708
411.711
411.701
411.714
411.742
411.77
411.794
411.817
411.813
411.855
411.856
411.611
411.89
407.86
408.405
408.72
408.784
408.363
407.902
408.463
408.771
408.262
408.258
408.574
408.529
408.487
408.55
408.607
408.489
408.548
408.673
408.54
408.583
408.728
408.677
408.601
408.701
408.788
408.76
408.742
408.819
408.894
408.898
408.885
408.896
408.92
408.944
408.97
408.993
409.011
408.999
409.045
409.047
408.801
409.08
405.308
405.607
406.012
405.393
405.013
405.776
406.209
405.446
405.206
405.834
405.839
405.585
405.675
405.776
405.691
405.635
405.804
405.811
405.762
405.863
405.839
405.733
405.838
405.963
405.97
405.88
405.94
406.048
406.079
406.044
406.052
406.088
406.11
406.131
406.156
406.178
406.191
406.166
406.219
406.224
405.985
406.264
403.027
402.415
402.196
402.383
403.004
403.22
402.48
402.232
402.97
403.169
402.625
402.619
402.91
402.892
402.764
402.868
402.995
402.896
402.956
403.011
402.87
402.878
403.078
403.173
403.061
403.03
403.136
403.224
403.204
403.188
403.227
403.264
403.285
403.311
403.332
403.343
403.348
403.32
403.383
403.394
403.164
403.442
400.213
399.554
399.112
399.948
400.432
399.88
399.076
399.809
400.627
399.938
399.484
399.811
400.092
399.996
399.878
400.049
400.163
400.038
400.097
400.118
399.979
400.04
400.241
400.312
400.178
400.195
400.304
400.365
400.328
400.333
400.382
400.413
400.434
400.466
400.485
400.486
400.492
400.473
400.537
400.555
400.334
400.612
396.716
396.933
396.93
397.184
397.113
396.248
396.491
397.536
397.482
396.722
396.74
397.125
397.185
397.066
397.016
397.212
397.244
397.123
397.248
397.266
397.097
397.159
397.381
397.458
397.304
397.31
397.433
397.512
397.479
397.468
397.52
397.566
397.584
397.604
397.618
397.62
397.633
397.627
397.684
397.704
397.486
397.761
393.381
394.344
394.673
394.41
393.579
393.21
394.294
394.825
394.023
393.875
394.201
394.238
394.199
394.175
394.186
394.376
394.324
394.242
394.399
394.355
394.203
394.316
394.53
394.592
394.379
394.419
394.57
394.663
394.612
394.6
394.667
394.721
394.728
394.738
394.756
394.764
394.781
394.778
394.825
394.841
394.62
394.891
391.064
391.305
391.61
390.751
390.443
391.167
391.604
391.189
391.093
391.24
391.175
391.246
391.37
391.237
391.306
391.41
391.322
391.39
391.48
391.337
391.332
391.577
391.671
391.551
391.48
391.616
391.733
391.737
391.684
391.739
391.823
391.845
391.839
391.861
391.892
391.912
391.928
391.92
391.961
391.974
391.752
392.016
388.855
388.125
387.707
387.579
388.301
388.909
388.287
387.805
388.303
388.55
388.17
388.237
388.454
388.353
388.435
388.442
388.371
388.516
388.509
388.395
388.543
388.699
388.668
388.559
388.659
388.777
388.805
388.749
388.795
388.89
388.937
388.925
388.94
388.98
389.01
389.033
389.051
389.045
389.085
389.099
388.88
389.14
385.319
384.989
384.695
385.411
385.858
385.635
384.739
384.996
385.764
385.417
385.125
385.36
385.472
385.449
385.527
385.46
385.479
385.629
385.54
385.526
385.72
385.742
385.631
385.692
385.82
385.873
385.788
385.811
385.924
386.008
386.007
386
386.044
386.09
386.113
386.134
386.153
386.152
386.192
386.207