/*--------------------------------*- C++ -*----------------------------------*\
| =========                 |                                                 |
| \\      /  F ield         | OpenFOAM: The Open Source CFD Toolbox           |
|  \\    /   O peration     | Version:  2406                                  |
|   \\  /    A nd           | Website:  www.openfoam.com                      |
|    \\/     M anipulation  |                                                 |
\*---------------------------------------------------------------------------*/
FoamFile
{
    version     2.0;
    format      ascii;
    arch        "LSB;label=32;scalar=64";
    class       volScalarField;
    location    "0.109";
    object      r_droplet_actual;
}
// * * * * * * * * * * * * * * * * * * * * * * * * * * * * * * * * * * * * * //

dimensions      [0 1 0 0 0 0 0];

internalField   nonuniform List<scalar> 
8988
(
0
0
0
0
0
0
0
0
0
0
0
0
0
0
0
0
0
0
0
0
0
0
0
0
0
0
0
0
0
0
0
0
0
0
0
0
0
0
0
0
0
0
0
0
0
0
0
0
0
0
0
0
0
0
0
0
0
0
0
0
0
0
0
0
0
0
0
0
0
0
0
0
0
0
0
0
0
0
0
0
0
0
0
0
0
0
0
0
0
0
0
0
0
0
0
0
0
0
0
0
0
0
0
0
0
0
0
0
0
0
0
0
0
0
0
0
0
0
0
0
0
0
0
0
0
0
0
0
0
0
0
0
0
0
0
0
0
0
0
0
0
0
0
0
0
0
0
0
0
0
0
0
0
0
0
0
0
0
0
0
0
0
0
0
0
0
0
0
0
0
0
0
0
0
0
0
0
0
0
0
0
0
0
0
0
0
0
0
0
0
0
0
0
0
0
0
0
0
0
0
0
0
0
0
0
0
0
0
0
0
0
0
0
0
0
0
0
0
0
0
0
0
0
0
0
0
0
0
0
0
0
0
0
0
0
0
0
0
0
0
0
0
0
0
0
0
0
0
0
0
0
0
0
0
0
0
0
0
0
0
0
0
0
0
0
0
0
0
0
0
0
0
0
0
0
0
0
0
0
0
0
0
0
0
0
0
0
0
0
0
0
0
0
0
0
0
0
0
0
0
0
0
0
0
0
0
0
0
0
0
0
0
0
0
0
0
0
0
0
0
0
0
0
0
0
0
0
0
0
0
0
0
0
0
0
0
0
0
0
0
0
0
0
0
0
0
0
0
0
0
0
0
0
0
0
0
0
0
0
0
0
0
0
0
0
0
0
0
0
0
0
0
0
0
0
0
0
0
0
0
0
0
0
0
0
0
0
0
0
0
0
0
0
0
0
0
0
0
0
0
0
0
0
0
0
0
0
0
0
0
0
0
0
0
0
0
0
0
0
0
0
0
0
0
0
0
0
0
0
0
0
0
0
0
0
0
0
0
0
0
0
0
0
0
0
0
0
0
0
0
0
0
0
0
0
0
0
0
0
0
0
0
0
0
0
0
0
0
0
0
0
0
0
0
0
0
0
0
0
0
0
0
0
0
0
0
0
0
0
0
0
0
0
0
0
0
0
0
0
0
0
0
0
0
0
0
0
0
0
0
0
0
0
0
0
0
0
0
0
0
0
0
0
0
0
0
0
0
0
0
0
0
0
0
0
0
0
0
0
0
0
0
0
0
0
0
0
0
0
0
0
0
0
0
0
0
0
0
0
0
0
0
0
0
0
0
0
0
0
0
0
0
0
0
0
0
0
0
0
0
0
0
0
0
0
0
0
0
0
0
0
0
0
0
0
0
0
0
0
0
0
0
0
0
0
0
0
0
0
0
0
0
0
0
0
0
0
0
0
0
0
0
0
0
0
0
0
0
0
0
0
0
0
0
0
0
0
0
0
0
0
0
0
0
0
0
0
0
0
0
0
0
0
0
0
0
0
0
0
0
0
0
0
0
0
0
0
0
0
0
0
0
0
0
0
0
0
0
0
0
0
0
0
0
0
0
0
0
0
0
0
0
0
0
0
0
0
0
0
0
0
0
0
0
0
0
0
0
0
0
0
0
0
0
0
0
0
0
0
0
0
0
0
0
0
0
0
0
0
0
0
0
0
0
0
0
0
0
0
0
0
0
0
0
0
0
0
0
0
0
0
0
0
0
0
0
0
0
0
0
0
0
0
0
0
0
0
0
0
0
0
0
0
0
0
0
0
0
0
0
0
0
0
0
0
0
0
0
0
0
0
0
0
0
0
0
0
0
0
0
0
0
0
0
0
0
0
0
0
0
0
0
0
0
0
0
0
0
0
0
0
0
0
0
0
0
0
0
0
0
0
0
0
0
0
0
0
0
0
0
0
0
0
0
0
0
0
0
0
0
0
0
0
0
0
0
0
0
0
0
0
0
0
0
0
0
0
0
0
0
0
0
0
0
0
0
0
0
0
0
0
0
0
0
0
0
0
0
0
0
0
0
0
0
0
0
0
0
0
0
0
0
0
0
0
0
0
0
0
0
0
0
0
0
0
0
0
0
0
0
0
0
0
0
0
0
0
0
0
0
0
0
0
0
0
0
0
0
0
0
0
0
0
0
0
0
0
0
0
0
0
0
0
0
0
0
0
0
0
0
0
0
0
0
0
0
0
0
0
0
0
0
0
0
0
0
0
0
0
0
0
0
0
0
0
0
0
0
0
0
0
0
0
0
0
0
0
0
0
0
0
0
0
0
0
0
0
0
0
0
0
0
0
0
0
0
0
0
0
0
0
0
0
0
0
0
0
0
0
0
0
0
0
0
0
0
0
0
0
0
0
0
0
0
0
0
0
0
0
0
0
0
0
0
0
0
0
0
0
0
0
0
0
0
0
0
0
0
0
0
0
0
0
0
0
0
0
0
0
0
0
0
0
0
0
0
0
0
0
0
0
0
0
0
0
0
0
0
0
0
0
0
0
0
0
0
0
0
0
0
0
0
0
0
0
0
0
0
0
0
0
0
0
0
0
0
0
0
0
0
0
0
0
0
0
0
0
0
0
0
0
0
0
0
0
0
0
0
0
0
0
0
0
0
0
0
0
0
0
0
0
0
0
0
0
0
0
0
0
0
0
0
0
0
0
0
0
0
0
0
0
0
0
0
0
0
0
0
0
0
0
0
0
0
0
0
0
0
0
0
0
0
0
0
0
0
0
0
0
0
0
0
0
0
0
0
0
0
0
0
0
0
0
0
0
0
0
0
0
0
0
0
0
0
0
0
0
0
0
0
0
0
0
0
0
0
0
0
0
0
0
0
0
0
0
0
0
0
0
0
0
0
0
0
0
0
0
0
0
0
0
0
0
0
0
0
0
0
0
0
0
0
0
0
0
0
0
0
0
0
0
0
0
0
0
0
0
0
0
0
0
0
0
0
0
0
0
0
0
0
0
0
0
0
0
0
0
0
0
0
0
0
0
0
0
0
0
0
0
0
0
0
0
0
0
0
0
0
0
0
0
0
0
0
0
0
0
0
0
0
0
0
0
0
0
0
0
0
0
0
0
0
0
0
0
0
0
0
0
0
0
0
0
0
0
0
0
0
0
0
0
0
0
0
0
0
0
0
0
0
0
0
0
0
0
0
0
0
0
0
0
0
0
0
0
0
0
0
0
0
0
0
0
0
0
0
0
0
0
0
0
0
0
0
0
0
0
0
0
0
0
0
0
0
0
0
0
0
0
0
0
0
0
0
0
0
0
0
0
0
0
0
0
0
0
0
0
0
0
0
0
0
0
0
0
0
0
0
0
0
0
0
0
0
0
0
0
0
0
0
0
0
0
0
0
0
0
0
0
0
0
0
0
0
0
0
0
0
0
0
0
0
0
0
0
0
0
0
0
0
0
0
0
0
0
0
0
0
0
0
0
0
0
0
0
0
0
0
0
0
0
0
0
0
0
0
0
0
0
0
0
0
0
0
0
0
0
0
0
0
0
0
0
0
0
0
0
0
0
0
0
0
0
0
0
0
0
0
0
0
0
0
0
0
0
0
0
0
0
0
0
0
0
0
0
0
0
0
0
0
0
0
0
0
0
0
0
0
0
0
0
0
0
0
0
0
0
0
0
0
0
0
0
0
0
0
0
0
0
0
0
0
0
0
0
0
0
0
0
0
0
0
0
0
0
0
0
0
0
0
0
0
0
0
0
0
0
0
0
0
0
0
0
0
0
0
0
0
0
0
0
0
0
0
0
0
0
0
0
0
0
0
0
0
0
0
0
0
0
0
0
0
0
0
0
0
0
0
0
0
0
0
0
0
0
0
0
0
0
0
0
0
0
0
0
0
0
0
0
0
0
0
0
0
0
0
0
0
0
0
0
0
0
0
0
0
0
0
0
0
0
0
0
0
0
0
0
0
0
0
0
0
0
0
0
0
0
0
0
0
0
0
0
0
0
0
0
0
0
0
0
0
0
0
0
0
0
0
0
0
0
0
0
0
0
0
0
0
0
0
0
0
0
0
0
0
0
0
0
0
0
0
0
0
0
0
0
0
0
0
0
0
0
0
0
0
0
0
0
0
0
0
0
0
0
0
0
0
0
0
0
0
0
0
0
0
0
0
0
0
0
0
0
0
0
0
0
0
0
0
0
0
0
0
0
0
0
0
0
0
0
0
0
0
0
0
0
0
0
0
0
0
0
0
0
0
0
0
0
0
0
0
0
0
0
0
0
0
0
0
0
0
0
0
0
0
0
0
0
0
0
0
0
0
0
0
0
0
0
0
0
0
0
0
0
0
0
0
0
0
0
0
0
0
0
0
0
0
0
0
0
0
0
0
0
0
0
0
0
0
0
0
0
0
0
0
0
0
0
0
0
0
0
0
0
0
0
0
0
0
0
0
0
0
0
0
0
0
0
0
0
0
0
0
0
0
0
0
0
0
0
0
0
0
0
0
0
0
0
0
0
0
0
0
0
0
0
0
0
0
0
0
0
0
0
0
0
0
0
0
0
0
0
0
0
0
0
0
0
0
0
0
0
0
0
0
0
0
0
0
0
0
0
0
0
0
0
0
0
0
0
0
0
0
0
0
0
0
0
0
0
0
0
0
0
0
0
0
0
0
0
0
0
0
0
0
0
0
0
0
0
0
0
0
0
0
0
0
0
0
0
0
0
0
0
0
0
0
0
0
0
0
0
0
0
0
0
0
0
0
0
0
0
0
0
0
0
0
0
0
0
0
0
0
0
0
0
0
0
0
0
0
0
0
0
0
0
0
0
0
0
0
0
0
0
0
0
0
0
0
0
0
0
0
0
0
0
0
0
0
0
0
0
0
0
0
0
0
0
0
0
0
0
0
0
0
0
0
0
0
0
0
0
0
0
0
0
0
0
0
0
0
0
0
0
0
0
0
0
0
0
0
0
0
0
0
0
0
0
0
0
0
0
0
0
0
0
0
0
0
0
0
0
0
0
0
0
0
0
0
0
0
0
0
0
0
0
0
0
0
0
0
0
0
0
0
0
0
0
0
0
0
0
0
0
0
0
0
0
0
0
0
0
0
0
0
0
0
0
0
0
0
0
0
0
0
0
0
0
0
0
0
0
0
0
0
0
0
0
0
0
0
0
0
0
0
0
0
0
0
0
0
0
0
0
0
0
0
0
0
0
0
0
0
0
0
0
0
0
0
0
0
0
0
0
0
0
0
0
0
0
0
0
0
0
0
0
0
0
0
0
0
0
0
0
0
0
0
0
0
0
0
0
0
0
0
0
0
0
0
0
0
0
0
0
0
0
0
0
0
0
0
0
0
0
0
0
0
0
0
0
0
0
0
0
0
0
0
0
0
0
0
0
0
0
0
0
0
0
0
0
0
0
0
0
0
0
0
0
0
0
0
0
0
0
0
0
0
0
0
0
0
0
0
0
0
0
0
0
0
0
0
0
0
0
0
0
0
0
0
0
0
0
0
0
0
0
0
0
0
0
0
0
0
0
0
0
0
0
0
0
0
0
0
0
0
0
0
0
0
0
0
0
0
0
0
0
0
0
0
0
0
0
0
0
0
0
0
0
0
0
0
0
0
0
0
0
0
0
0
0
0
0
0
0
0
0
0
0
0
0
0
0
0
0
0
0
0
0
0
0
0
0
0
0
0
0
0
0
0
0
0
0
0
0
0
0
0
0
0
0
0
0
0
0
0
0
0
0
0
0
0
0
0
0
0
0
0
0
0
0
0
0
0
0
0
0
0
0
0
0
0
0
0
0
0
0
0
0
0
0
0
0
0
0
0
0
0
0
0
0
0
0
0
0
0
0
0
0
0
0
0
0
0
0
0
0
0
0
0
0
0
0
0
0
0
0
0
0
0
0
0
0
0
0
0
0
0
0
0
0
0
0
0
0
0
0
0
0
0
0
0
0
0
0
0
0
0
0
0
0
0
0
0
0
0
0
0
0
0
0
0
0
0
0
0
0
0
0
0
0
0
0
0
0
0
0
0
0
0
0
0
0
0
0
0
0
0
0
0
0
0
0
0
0
0
0
0
0
0
0
0
0
0
0
0
0
0
0
0
0
0
0
0
0
0
0
0
0
0
0
0
0
0
0
0
0
0
0
0
0
0
0
0
0
0
0
0
0
0
0
0
0
0
0
0
0
0
0
0
0
0
0
0
0
0
0
0
0
0
0
0
0
0
0
0
0
0
0
0
0
0
0
0
0
0
0
0
0
0
0
0
0
0
0
0
0
0
0
0
0
0
0
0
0
0
0
0
0
0
0
0
0
0
0
0
0
0
0
0
0
0
0
0
0
0
0
0
0
0
0
0
0
0
0
0
0
0
0
0
0
0
0
0
0
0
0
0
0
0
0
0
0
0
0
0
0
0
0
0
0
0
0
0
0
0
0
0
0
0
0
0
0
0
0
0
0
0
0
0
0
0
0
0
0
0
0
0
0
0
0
0
0
0
0
0
0
0
0
0
0
0
0
0
0
0
0
0
0
0
0
0
0
0
0
0
0
0
0
0
0
0
0
0
0
0
0
0
0
0
0
0
0
0
0
0
0
0
0
0
0
0
0
0
0
0
0
0
0
0
0
0
0
0
0
0
0
0
0
0
0
0
0
0
0
0
0
0
0
0
0
0
0
0
0
0
0
0
0
0
0
0
0
0
0
0
0
0
0
0
0
0
0
0
0
0
0
0
0
0
0
0
0
0
0
0
0
0
0
0
0
0
0
0
0
0
0
0
0
0
0
0
0
0
0
0
0
0
0
0
0
0
0
0
0
0
0
0
0
0
0
0
0
0
0
0
0
0
0
0
0
0
0
0
0
0
0
0
0
0
0
0
0
0
0
0
0
0
0
0
0
0
0
0
0
0
0
0
0
0
0
0
0
0
0
0
0
0
0
0
0
0
0
0
0
0
0
0
0
0
0
0
0
0
0
0
0
0
0
0
0
0
0
0
0
0
0
0
0
0
0
0
0
0
0
0
0
0
0
0
0
0
0
0
0
0
0
0
0
0
0
0
0
0
0
0
0
0
0
0
0
0
0
0
0
0
0
0
0
0
0
0
0
0
0
0
0
0
0
0
0
0
0
0
0
0
0
0
0
0
0
0
0
0
0
0
0
0
0
0
0
0
0
0
0
0
0
0
0
0
0
0
0
0
0
0
0
0
0
0
0
0
0
0
0
0
0
0
0
0
0
0
0
0
0
0
0
0
0
0
0
0
0
0
0
0
0
0
0
0
0
0
0
0
0
0
0
0
0
0
0
0
0
0
0
0
0
0
0
0
0
0
0
0
0
0
0
0
0
0
0
0
0
0
0
0
0
0
0
0
0
0
0
0
0
0
0
0
0
0
0
0
0
0
0
0
0
0
0
0
0
0
0
0
0
0
0
0
0
0
0
0
0
0
0
0
0
0
0
0
0
0
0
0
0
0
0
0
0
0
0
0
0
0
0
0
0
0
0
0
0
0
0
0
0
0
0
0
0
0
0
0
0
0
0
0
0
0
0
0
0
0
0
0
0
0
0
0
0
0
0
0
0
0
0
0
0
0
0
0
0
0
0
0
0
0
0
0
0
0
0
0
0
0
0
0
0
0
0
0
0
0
0
0
0
0
0
0
0
0
0
0
0
0
0
0
0
0
0
0
0
0
0
0
0
0
0
0
0
0
0
0
0
0
0
0
0
0
0
0
0
0
0
0
0
0
0
0
0
0
0
0
0
0
0
0
0
0
0
0
0
0
0
0
0
0
0
0
0
0
0
0
0
0
0
0
0
0
0
0
0
0
0
0
0
0
0
0
0
0
0
0
0
0
0
0
0
0
0
0
0
0
0
0
0
0
0
0
0
0
0
0
0
0
0
0
0
0
0
0
0
0
0
0
0
0
0
0
0
0
0
0
0
0
0
0
0
0
0
0
0
0
0
0
0
0
0
0
0
0
0
0
0
0
0
0
0
0
0
0
0
0
0
0
0
0
0
0
0
0
0
0
0
0
0
0
0
0
0
0
0
0
0
0
0
0
0
0
0
0
0
0
0
0
0
0
0
0
0
0
0
0
0
0
0
0
0
0
0
0
0
0
0
0
0
0
0
0
0
0
0
0
0
0
0
0
0
0
0
0
0
0
0
0
0
0
0
0
0
0
0
0
0
0
0
0
0
0
0
0
0
0
0
0
0
0
0
0
0
0
0
0
0
0
0
0
0
0
0
0
0
0
0
0
0
0
0
0
0
0
0
0
0
0
0
0
0
0
0
0
0
0
0
0
0
0
0
0
0
0
0
0
0
0
0
0
0
0
0
0
0
0
0
0
0
0
0
0
0
0
0
0
0
0
0
0
0
0
0
0
0
0
0
0
0
0
0
0
0
0
0
0
0
0
0
0
0
0
0
0
0
0
0
0
0
0
0
0
0
0
0
0
0
0
0
0
0
0
0
0
0
0
0
0
0
0
0
0
0
0
0
0
0
0
0
0
0
0
0
0
0
0
0
0
0
0
0
0
0
0
0
0
0
0
0
0
0
0
0
0
0
0
0
0
0
0
0
0
0
0
0
0
0
0
0
0
0
0
0
0
0
0
0
0
0
0
0
0
0
0
0
0
0
0
0
0
0
0
0
0
0
0
0
0
0
0
0
0
0
0
0
0
0
0
0
0
0
0
0
0
0
0
0
0
0
0
0
0
0
0
0
0
0
0
0
0
0
0
0
0
0
0
0
0
0
0
0
0
0
0
0
0
0
0
0
0
0
0
0
0
0
0
0
0
0
0
0
0
0
0
0
0
0
0
0
0
0
0
0
0
0
0
0
0
0
0
0
0
0
0
0
0
0
0
0
0
0
0
0
0
0
0
0
0
0
0
0
0
0
0
0
0
0
0
0
0
0
0
0
0
0
0
0
0
0
0
0
0
0
0
0
0
0
0
0
0
0
0
0
0
0
0
0
0
0
0
0
0
0
0
0
0
0
0
0
0
0
0
0
0
0
0
0
0
0
0
0
0
0
0
0
0
0
0
0
0
0
0
0
0
0
0
0
0
0
0
0
0
0
0
0
0
0
0
0
0
0
0
0
0
0
0
0
0
0
0
0
0
0
0
0
0
0
0
0
0
0
0
0
0
0
0
0
0
0
0
0
0
0
0
0
0
0
0
0
0
0
0
0
0
0
0
0
0
0
0
0
0
0
0
0
0
0
0
0
0
0
0
0
0
0
0
0
0
0
0
0
0
0
0
0
0
0
0
0
0
0
0
0
0
0
0
0
0
0
0
0
0
0
0
0
0
0
0
0
0
0
0
0
0
0
0
0
0
0
0
0
0
0
0
0
0
0
0
0
0
0
0
0
0
0
0
0
0
0
0
0
0
0
0
0
0
0
0
0
0
0
0
0
0
0
0
0
0
0
0
0
0
0
0
0
0
0
0
0
0
0
0
0
0
0
0
0
0
0
0
0
0
0
0
0
0
0
0
0
0
0
0
0
0
0
0
0
0
0
0
0
0
0
0
0
0
0
0
0
0
0
0
0
0
0
0
0
0
0
0
0
0
0
0
0
0
0
0
0
0
0
0
0
0
0
0
0
0
0
0
0
0
0
0
0
0
0
0
0
0
0
0
0
0
0
0
0
0
0
0
0
0
0
0
0
0
0
0
0
0
0
0
0
0
0
0
0
0
0
0
0
0
0
0
0
0
0
0
0
0
0
0
0
0
0
0
0
0
0
0
0
0
0
0
0
0
0
0
0
0
0
0
0
0
0
0
0
0
0
0
0
0
0
0
0
0
0
0
0
0
0
0
0
0
0
0
0
0
0
0
0
0
0
0
0
0
0
0
0
0
0
0
0
0
0
0
0
0
0
0
0
0
0
0
0
0
0
0
0
0
0
0
0
0
0
0
0
0
0
0
0
0
0
0
0
0
0
0
0
0
0
0
0
0
0
0
0
0
0
0
0
0
0
0
0
0
0
0
0
0
0
0
0
0
0
0
0
0
0
0
0
0
0
0
0
0
0
0
0
0
0
0
0
0
0
0
0
0
0
0
0
0
0
0
0
0
0
0
0
0
0
0
0
0
0
0
0
0
0
0
0
0
0
0
0
0
0
0
0
0
0
0
0
0
0
0
0
0
0
0
0
0
0
0
0
0
0
0
0
0
0
0
0
0
0
0
0
0
0
0
0
0
0
0
0
0
0
0
0
0
0
0
0
0
0
0
0
0
0
0
0
0
0
0
0
0
0
0
0
0
0
0
0
0
0
0
0
0
0
0
0
0
0
0
0
0
0
0
0
0
0
0
0
5.89748e-10
5.88493e-10
5.87456e-10
5.86683e-10
5.86192e-10
5.85924e-10
5.85785e-10
5.85705e-10
5.85658e-10
5.85653e-10
5.85714e-10
5.85845e-10
5.86018e-10
5.86207e-10
5.86399e-10
5.86579e-10
5.86731e-10
5.86844e-10
5.86912e-10
0
0
0
0
0
0
0
0
0
0
0
0
0
0
0
0
0
0
0
0
0
5.87785e-10
5.85282e-10
5.83515e-10
5.82223e-10
5.81249e-10
5.80537e-10
5.80082e-10
5.79828e-10
5.79691e-10
5.79614e-10
5.79571e-10
5.7957e-10
5.79631e-10
5.79753e-10
5.79914e-10
5.80093e-10
5.80278e-10
5.80456e-10
5.80607e-10
5.80718e-10
5.80779e-10
0
0
0
0
0
0
0
0
0
0
0
0
0
0
0
0
0
0
0
0
5.85488e-10
5.81523e-10
5.78876e-10
5.76999e-10
5.75674e-10
5.74724e-10
5.74059e-10
5.73646e-10
5.73416e-10
5.73289e-10
5.73217e-10
5.73181e-10
5.73188e-10
5.73249e-10
5.7336e-10
5.73505e-10
5.73676e-10
5.73859e-10
5.74034e-10
5.7418e-10
5.74286e-10
5.74342e-10
0
0
0
0
0
0
0
0
0
0
0
0
0
0
0
0
0
0
0
5.85929e-10
5.79019e-10
5.75034e-10
5.72328e-10
5.70411e-10
5.69067e-10
5.68117e-10
5.67472e-10
5.67084e-10
5.66871e-10
5.66752e-10
5.66686e-10
5.66658e-10
5.66673e-10
5.66735e-10
5.66836e-10
5.66972e-10
5.6714e-10
5.67321e-10
5.67491e-10
5.67629e-10
5.67729e-10
5.67783e-10
0
0
0
0
0
0
0
0
0
0
0
0
0
0
0
0
0
0
5.96464e-10
5.80019e-10
5.72674e-10
5.68518e-10
5.6577e-10
5.63848e-10
5.62496e-10
5.61544e-10
5.60908e-10
5.60527e-10
5.60316e-10
5.60199e-10
5.60138e-10
5.60115e-10
5.60134e-10
5.60194e-10
5.6029e-10
5.60424e-10
5.60591e-10
5.6077e-10
5.60933e-10
5.61063e-10
5.61158e-10
5.61212e-10
0
0
0
0
0
0
0
0
0
0
0
0
0
0
0
0
0
6.22114e-10
5.85075e-10
5.72312e-10
5.65958e-10
5.62016e-10
5.59302e-10
5.57364e-10
5.55985e-10
5.55029e-10
5.54397e-10
5.54013e-10
5.538e-10
5.53688e-10
5.53632e-10
5.53612e-10
5.53631e-10
5.53689e-10
5.53786e-10
5.53924e-10
5.54091e-10
5.54266e-10
5.5442e-10
5.54542e-10
5.54636e-10
5.54692e-10
0
0
0
0
0
0
0
0
0
0
0
0
0
0
0
0
0
6.24858e-10
5.80775e-10
5.66035e-10
5.59367e-10
5.55493e-10
5.52867e-10
5.50959e-10
5.49584e-10
5.48629e-10
5.47988e-10
5.47588e-10
5.47369e-10
5.47259e-10
5.47204e-10
5.47183e-10
5.47198e-10
5.47256e-10
5.47356e-10
5.47498e-10
5.47666e-10
5.47836e-10
5.47982e-10
5.48099e-10
5.48194e-10
5.48253e-10
0
0
0
0
0
0
0
0
0
0
0
0
0
0
0
0
6.23955e-10
5.98479e-10
5.70958e-10
5.59157e-10
5.5291e-10
5.49077e-10
5.46463e-10
5.44584e-10
5.43247e-10
5.42313e-10
5.41675e-10
5.41277e-10
5.41057e-10
5.40943e-10
5.40881e-10
5.40853e-10
5.40862e-10
5.40918e-10
5.41021e-10
5.41167e-10
5.41335e-10
5.415e-10
5.41641e-10
5.41755e-10
5.41851e-10
5.4191e-10
0
0
0
0
0
0
0
0
0
0
0
0
0
0
0
0
6.13437e-10
5.8217e-10
5.61605e-10
5.51989e-10
5.46382e-10
5.42708e-10
5.40129e-10
5.38285e-10
5.36987e-10
5.36078e-10
5.35461e-10
5.35084e-10
5.34873e-10
5.34753e-10
5.34681e-10
5.34644e-10
5.34644e-10
5.34693e-10
5.34794e-10
5.3494e-10
5.35107e-10
5.35267e-10
5.35404e-10
5.35518e-10
5.35611e-10
5.35665e-10
0
0
0
0
0
0
0
0
0
0
0
0
0
0
0
0
6.01419e-10
5.70687e-10
5.53398e-10
5.44994e-10
5.39874e-10
5.36378e-10
5.33872e-10
5.32078e-10
5.30817e-10
5.29937e-10
5.29356e-10
5.29007e-10
5.28804e-10
5.28677e-10
5.286e-10
5.28558e-10
5.28549e-10
5.28585e-10
5.28679e-10
5.28822e-10
5.28984e-10
5.2914e-10
5.29278e-10
5.29392e-10
5.29481e-10
5.29528e-10
0
0
0
0
0
0
0
0
0
0
0
0
0
0
0
0
5.89381e-10
5.62019e-10
5.46242e-10
5.38382e-10
5.33538e-10
5.30186e-10
5.27763e-10
5.26022e-10
5.24785e-10
5.23929e-10
5.23374e-10
5.23036e-10
5.22829e-10
5.227e-10
5.22626e-10
5.22585e-10
5.22571e-10
5.22598e-10
5.22684e-10
5.22816e-10
5.2297e-10
5.23124e-10
5.23263e-10
5.23377e-10
5.2346e-10
5.23502e-10
0
0
0
0
0
0
0
0
0
0
0
0
0
0
0
4.88082e-10
5.75576e-10
5.53453e-10
5.39396e-10
5.32001e-10
5.27353e-10
5.24114e-10
5.21777e-10
5.20095e-10
5.18895e-10
5.18065e-10
5.17523e-10
5.1718e-10
5.16962e-10
5.16833e-10
5.16764e-10
5.16724e-10
5.16707e-10
5.16731e-10
5.16806e-10
5.16924e-10
5.17068e-10
5.17219e-10
5.17358e-10
5.17471e-10
5.17552e-10
5.1759e-10
0
0
0
0
0
0
0
0
0
0
0
0
0
0
0
5.32018e-10
5.6441e-10
5.45514e-10
5.32785e-10
5.25792e-10
5.2132e-10
5.18189e-10
5.15933e-10
5.14305e-10
5.1314e-10
5.12333e-10
5.11796e-10
5.11445e-10
5.11221e-10
5.11092e-10
5.11022e-10
5.1098e-10
5.10963e-10
5.10984e-10
5.11048e-10
5.11153e-10
5.11289e-10
5.11436e-10
5.11572e-10
5.11681e-10
5.11759e-10
5.11798e-10
0
0
0
0
0
0
0
0
0
0
0
0
0
0
0
5.37947e-10
5.54254e-10
5.38223e-10
5.26495e-10
5.19764e-10
5.15411e-10
5.12376e-10
5.10198e-10
5.0862e-10
5.07486e-10
5.06701e-10
5.06175e-10
5.05831e-10
5.05616e-10
5.0549e-10
5.05418e-10
5.05373e-10
5.05354e-10
5.05368e-10
5.05422e-10
5.05519e-10
5.05649e-10
5.05786e-10
5.05912e-10
5.06013e-10
5.06087e-10
5.06125e-10
0
0
0
0
0
0
0
0
0
0
0
0
0
0
4.80787e-10
6.19775e-10
5.49252e-10
5.30732e-10
5.20172e-10
5.13858e-10
5.0965e-10
5.06695e-10
5.04572e-10
5.03031e-10
5.01926e-10
5.01164e-10
5.00657e-10
5.00334e-10
5.00137e-10
5.00019e-10
4.99947e-10
4.99903e-10
4.9988e-10
4.99885e-10
4.99931e-10
5.00023e-10
5.00144e-10
5.00271e-10
5.00385e-10
5.00475e-10
5.00546e-10
5.00585e-10
0
0
0
0
0
0
0
0
0
0
0
0
0
0
5.26761e-10
6.9874e-10
5.47586e-10
5.23508e-10
5.13787e-10
5.07987e-10
5.04002e-10
5.01142e-10
4.99062e-10
4.97552e-10
4.96479e-10
4.9574e-10
4.95255e-10
4.94954e-10
4.94776e-10
4.94669e-10
4.94605e-10
4.94563e-10
4.94536e-10
4.94536e-10
4.94578e-10
4.94665e-10
4.94778e-10
4.94895e-10
4.94999e-10
4.95083e-10
4.95153e-10
4.95194e-10
0
0
0
0
0
0
0
0
0
0
0
0
0
0
5.33512e-10
6.51854e-10
5.41497e-10
5.17232e-10
5.07812e-10
5.02288e-10
4.98483e-10
4.95717e-10
4.93687e-10
4.92216e-10
4.91176e-10
4.90463e-10
4.89997e-10
4.89712e-10
4.89546e-10
4.8945e-10
4.89392e-10
4.89352e-10
4.89323e-10
4.8932e-10
4.89358e-10
4.89438e-10
4.89546e-10
4.89658e-10
4.89757e-10
4.89839e-10
4.89909e-10
4.89953e-10
0
0
0
0
0
0
0
0
0
0
0
0
0
4.67063e-10
5.30081e-10
6.07044e-10
5.33604e-10
5.11303e-10
5.02155e-10
4.96791e-10
4.9311e-10
4.90429e-10
4.88456e-10
4.87029e-10
4.86022e-10
4.85333e-10
4.84884e-10
4.84612e-10
4.84457e-10
4.8437e-10
4.84316e-10
4.84277e-10
4.84248e-10
4.84245e-10
4.84279e-10
4.84354e-10
4.84459e-10
4.84569e-10
4.84665e-10
4.84746e-10
4.84815e-10
4.84858e-10
0
0
0
0
0
0
0
0
0
0
0
0
0
5.18452e-10
5.27235e-10
5.7813e-10
5.25688e-10
5.05516e-10
4.96698e-10
4.91475e-10
4.87896e-10
4.85295e-10
4.83386e-10
4.82007e-10
4.81034e-10
4.80368e-10
4.79935e-10
4.79671e-10
4.79521e-10
4.79437e-10
4.79382e-10
4.79341e-10
4.79311e-10
4.79306e-10
4.79338e-10
4.79411e-10
4.79514e-10
4.79622e-10
4.79718e-10
4.79798e-10
4.79862e-10
4.79902e-10
0
0
0
0
0
0
0
0
0
0
0
0
0
5.29004e-10
5.22672e-10
5.58053e-10
5.18177e-10
4.99883e-10
4.9141e-10
4.86326e-10
4.8284e-10
4.80316e-10
4.78472e-10
4.77141e-10
4.76201e-10
4.75559e-10
4.75142e-10
4.74886e-10
4.74736e-10
4.74647e-10
4.74588e-10
4.74543e-10
4.74512e-10
4.74505e-10
4.74539e-10
4.74614e-10
4.74718e-10
4.74826e-10
4.74922e-10
4.74998e-10
4.75059e-10
4.75095e-10
0
0
0
0
0
0
0
0
0
0
0
0
4.36508e-10
5.25608e-10
5.16443e-10
5.42824e-10
5.11119e-10
4.94432e-10
4.86291e-10
4.81341e-10
4.77944e-10
4.75496e-10
4.73715e-10
4.72431e-10
4.71524e-10
4.70906e-10
4.70504e-10
4.70255e-10
4.70102e-10
4.70008e-10
4.69942e-10
4.69893e-10
4.69859e-10
4.69852e-10
4.69888e-10
4.69965e-10
4.70069e-10
4.70177e-10
4.70271e-10
4.70342e-10
4.70398e-10
4.70431e-10
0
0
0
0
0
0
0
0
0
0
0
0
5.05672e-10
5.22816e-10
5.10544e-10
5.30558e-10
5.04492e-10
4.89167e-10
4.8133e-10
4.76506e-10
4.73198e-10
4.70825e-10
4.69106e-10
4.6787e-10
4.66999e-10
4.66407e-10
4.6602e-10
4.65776e-10
4.65623e-10
4.65525e-10
4.65456e-10
4.65403e-10
4.65366e-10
4.65358e-10
4.65394e-10
4.65472e-10
4.65577e-10
4.65683e-10
4.65774e-10
4.65841e-10
4.65894e-10
4.65924e-10
0
0
0
0
0
0
0
0
0
0
0
0
5.23004e-10
5.18742e-10
5.04747e-10
5.20229e-10
4.98236e-10
4.84065e-10
4.76518e-10
4.71824e-10
4.68608e-10
4.6631e-10
4.64651e-10
4.63463e-10
4.62631e-10
4.62067e-10
4.61695e-10
4.61458e-10
4.61309e-10
4.6121e-10
4.61139e-10
4.61084e-10
4.61045e-10
4.61034e-10
4.61066e-10
4.61143e-10
4.61244e-10
4.61346e-10
4.61433e-10
4.61497e-10
4.61548e-10
4.61576e-10
0
0
0
0
0
0
0
0
0
0
0
0
5.23134e-10
5.12886e-10
4.97756e-10
5.1088e-10
4.92257e-10
4.79141e-10
4.71863e-10
4.67291e-10
4.64165e-10
4.61942e-10
4.60345e-10
4.59209e-10
4.5842e-10
4.57885e-10
4.57532e-10
4.5731e-10
4.57173e-10
4.57076e-10
4.57006e-10
4.56952e-10
4.56914e-10
4.56903e-10
4.56932e-10
4.57002e-10
4.57094e-10
4.57187e-10
4.57268e-10
4.57331e-10
4.57382e-10
4.57412e-10
0
0
0
0
0
0
0
0
0
0
0
4.80428e-10
5.21223e-10
5.08898e-10
5.48971e-10
5.05282e-10
4.86092e-10
4.74186e-10
4.67316e-10
4.62906e-10
4.59878e-10
4.57735e-10
4.56208e-10
4.5513e-10
4.54386e-10
4.53884e-10
4.53554e-10
4.5335e-10
4.53227e-10
4.53135e-10
4.5307e-10
4.53021e-10
4.52987e-10
4.52977e-10
4.53002e-10
4.53061e-10
4.53139e-10
4.53222e-10
4.53297e-10
4.53357e-10
4.53407e-10
4.53439e-10
0
0
0
0
0
0
0
0
0
0
0
5.16033e-10
5.17153e-10
5.03936e-10
6.14159e-10
5.02635e-10
4.79967e-10
4.69183e-10
4.62846e-10
4.58663e-10
4.55757e-10
4.53704e-10
4.52255e-10
4.51244e-10
4.50553e-10
4.50092e-10
4.49793e-10
4.49605e-10
4.49493e-10
4.49411e-10
4.49356e-10
4.49313e-10
4.49282e-10
4.49272e-10
4.49293e-10
4.49344e-10
4.49414e-10
4.49491e-10
4.49559e-10
4.49614e-10
4.4966e-10
4.49691e-10
0
0
0
0
0
0
0
0
0
0
0
5.2285e-10
5.11961e-10
4.98012e-10
6.50226e-10
5.00851e-10
4.74342e-10
4.64294e-10
4.58492e-10
4.54587e-10
4.51835e-10
4.49887e-10
4.48523e-10
4.47584e-10
4.46954e-10
4.46543e-10
4.46281e-10
4.46113e-10
4.4601e-10
4.45939e-10
4.45893e-10
4.45852e-10
4.45823e-10
4.4581e-10
4.45826e-10
4.45873e-10
4.45942e-10
4.46016e-10
4.46078e-10
4.46124e-10
4.4616e-10
4.46186e-10
0
0
0
0
0
0
0
0
0
0
4.19214e-10
5.19724e-10
5.0565e-10
4.9011e-10
5.97839e-10
4.95096e-10
4.69631e-10
4.59881e-10
4.54377e-10
4.50703e-10
4.4812e-10
4.46299e-10
4.45034e-10
4.44178e-10
4.43618e-10
4.43263e-10
4.43044e-10
4.42907e-10
4.42819e-10
4.4276e-10
4.42719e-10
4.42682e-10
4.42651e-10
4.42633e-10
4.42647e-10
4.42696e-10
4.42767e-10
4.4284e-10
4.42898e-10
4.42933e-10
4.42956e-10
4.42973e-10
0
0
0
0
0
0
0
0
0
0
4.99453e-10
5.16125e-10
4.99607e-10
4.84109e-10
5.59995e-10
4.88398e-10
4.65159e-10
4.55793e-10
4.50527e-10
4.47065e-10
4.44662e-10
4.42983e-10
4.41835e-10
4.4108e-10
4.40603e-10
4.40311e-10
4.4014e-10
4.4004e-10
4.39968e-10
4.39922e-10
4.39885e-10
4.39849e-10
4.39813e-10
4.3979e-10
4.39802e-10
4.39853e-10
4.39927e-10
4.39997e-10
4.4005e-10
4.40074e-10
4.40086e-10
4.40093e-10
0
0
0
0
0
0
0
0
0
0
5.17671e-10
5.11364e-10
4.93791e-10
4.78566e-10
5.34117e-10
4.81693e-10
4.60828e-10
4.5194e-10
4.46934e-10
4.43696e-10
4.41487e-10
4.39972e-10
4.38967e-10
4.38332e-10
4.37954e-10
4.37741e-10
4.37629e-10
4.37571e-10
4.37525e-10
4.37494e-10
4.3746e-10
4.37425e-10
4.37384e-10
4.37361e-10
4.37373e-10
4.37425e-10
4.37495e-10
4.37561e-10
4.37609e-10
4.37627e-10
4.37633e-10
4.37633e-10
0
0
0
0
0
0
0
0
0
0
5.184e-10
5.0554e-10
4.88145e-10
4.73287e-10
5.14982e-10
4.75284e-10
4.56707e-10
4.48366e-10
4.43655e-10
4.40657e-10
4.38659e-10
4.3734e-10
4.3651e-10
4.36021e-10
4.3576e-10
4.35642e-10
4.35602e-10
4.35595e-10
4.35585e-10
4.35566e-10
4.35537e-10
4.35501e-10
4.35461e-10
4.35441e-10
4.35451e-10
4.35498e-10
4.3556e-10
4.35619e-10
4.35662e-10
4.35678e-10
4.35684e-10
4.35681e-10
0
0
0
0
0
0
0
0
0
4.6703e-10
5.16303e-10
4.99726e-10
4.82731e-10
4.68089e-10
4.99548e-10
4.6915e-10
4.52802e-10
4.45082e-10
4.40709e-10
4.37981e-10
4.36234e-10
4.35153e-10
4.34535e-10
4.34228e-10
4.34119e-10
4.34121e-10
4.34171e-10
4.3423e-10
4.34267e-10
4.34271e-10
4.34253e-10
4.34223e-10
4.3419e-10
4.34174e-10
4.34182e-10
4.34218e-10
4.34267e-10
4.34317e-10
4.34353e-10
4.34366e-10
4.34372e-10
4.3437e-10
0
0
0
0
0
0
0
0
0
5.09898e-10
5.12134e-10
4.94181e-10
4.77371e-10
4.62994e-10
4.86618e-10
4.63331e-10
4.49165e-10
4.42149e-10
4.38179e-10
4.35779e-10
4.34339e-10
4.33544e-10
4.33185e-10
4.33108e-10
4.33193e-10
4.33348e-10
4.33509e-10
4.33647e-10
4.33742e-10
4.33778e-10
4.3378e-10
4.3376e-10
4.33736e-10
4.33724e-10
4.3373e-10
4.33755e-10
4.33791e-10
4.33827e-10
4.33851e-10
4.33857e-10
4.33862e-10
4.33861e-10
0
0
0
0
0
0
0
0
0
5.18013e-10
5.07098e-10
4.88526e-10
4.71872e-10
4.57004e-10
4.75163e-10
4.57807e-10
4.45859e-10
4.39632e-10
4.36137e-10
4.34142e-10
4.33083e-10
4.32643e-10
4.32608e-10
4.3282e-10
4.3315e-10
4.33502e-10
4.33812e-10
4.34053e-10
4.34217e-10
4.34298e-10
4.34329e-10
4.34327e-10
4.34314e-10
4.34303e-10
4.34307e-10
4.3432e-10
4.34339e-10
4.34355e-10
4.34357e-10
4.34346e-10
4.34339e-10
4.34336e-10
0
0
0
0
0
0
0
0
3.76385e-10
5.15981e-10
5.01228e-10
4.83043e-10
4.68672e-10
5.1367e-10
4.68763e-10
4.52488e-10
4.42853e-10
4.3764e-10
4.34751e-10
4.33254e-10
4.3266e-10
4.32662e-10
4.33038e-10
4.33612e-10
4.34248e-10
4.3485e-10
4.35356e-10
4.35728e-10
4.35976e-10
4.36115e-10
4.36184e-10
4.36205e-10
4.36205e-10
4.36196e-10
4.36199e-10
4.36203e-10
4.36206e-10
4.36201e-10
4.36181e-10
4.36148e-10
4.36124e-10
4.36117e-10
0
0
0
0
0
0
0
0
4.79242e-10
5.13262e-10
4.95744e-10
4.77915e-10
4.64428e-10
6.00169e-10
4.67236e-10
4.47353e-10
4.39992e-10
4.3614e-10
4.34101e-10
4.33256e-10
4.33244e-10
4.33795e-10
4.34678e-10
4.357e-10
4.36712e-10
4.37618e-10
4.38357e-10
4.38895e-10
4.39257e-10
4.39467e-10
4.39579e-10
4.39624e-10
4.39637e-10
4.39631e-10
4.39628e-10
4.39614e-10
4.3959e-10
4.39553e-10
4.39503e-10
4.39438e-10
4.39389e-10
4.3937e-10
0
0
0
0
0
0
0
0
5.09529e-10
5.09752e-10
4.91044e-10
4.73201e-10
4.57365e-10
5.35078e-10
4.61135e-10
4.44171e-10
4.38262e-10
4.3555e-10
4.34436e-10
4.34386e-10
4.35105e-10
4.36344e-10
4.37869e-10
4.39474e-10
4.40991e-10
4.42307e-10
4.43356e-10
4.44118e-10
4.44629e-10
4.44932e-10
4.45095e-10
4.45168e-10
4.45199e-10
4.45208e-10
4.45206e-10
4.45178e-10
4.45127e-10
4.45054e-10
4.44966e-10
4.44863e-10
4.44783e-10
4.44748e-10
0
0
0
0
0
0
0
0
5.15428e-10
5.06002e-10
4.86687e-10
4.69181e-10
4.53756e-10
4.94985e-10
4.54437e-10
4.4186e-10
4.37549e-10
4.36017e-10
4.35955e-10
4.36888e-10
4.38529e-10
4.40621e-10
4.42923e-10
4.45218e-10
4.47325e-10
4.49113e-10
4.50512e-10
4.51513e-10
4.52173e-10
4.52565e-10
4.52775e-10
4.52875e-10
4.52921e-10
4.52937e-10
4.52924e-10
4.52877e-10
4.52792e-10
4.52678e-10
4.5255e-10
4.52413e-10
4.52303e-10
4.5225e-10
0
0
0
0
0
0
0
0
5.14066e-10
5.01815e-10
4.82879e-10
4.65756e-10
4.50546e-10
4.68332e-10
4.48074e-10
4.40363e-10
4.38008e-10
4.37845e-10
4.38979e-10
4.41033e-10
4.43756e-10
4.46911e-10
4.50225e-10
4.53433e-10
4.56323e-10
4.5875e-10
4.60651e-10
4.62018e-10
4.6291e-10
4.63433e-10
4.63715e-10
4.63854e-10
4.6392e-10
4.63938e-10
4.63913e-10
4.63836e-10
4.63705e-10
4.63532e-10
4.63339e-10
4.63144e-10
4.62989e-10
4.62909e-10
0
0
0
0
0
0
0
4.12211e-10
5.13802e-10
4.98261e-10
4.79607e-10
4.62508e-10
4.47516e-10
4.50077e-10
4.42764e-10
4.39867e-10
4.39713e-10
4.41102e-10
4.43633e-10
4.47098e-10
4.51281e-10
4.55863e-10
4.6048e-10
4.64818e-10
4.68649e-10
4.71835e-10
4.74322e-10
4.76115e-10
4.77288e-10
4.77982e-10
4.78358e-10
4.78549e-10
4.7864e-10
4.78665e-10
4.78628e-10
4.78524e-10
4.78345e-10
4.78109e-10
4.77842e-10
4.7758e-10
4.77371e-10
4.77261e-10
0
0
0
0
0
0
0
4.77536e-10
5.12461e-10
4.95156e-10
4.76249e-10
4.59253e-10
4.4467e-10
4.37017e-10
4.38575e-10
4.40407e-10
4.42808e-10
4.46155e-10
4.50547e-10
4.55881e-10
4.61856e-10
4.68085e-10
4.74201e-10
4.79874e-10
4.84847e-10
4.88961e-10
4.92153e-10
4.94451e-10
4.95967e-10
4.96876e-10
4.97375e-10
4.97629e-10
4.97747e-10
4.97778e-10
4.97728e-10
4.97595e-10
4.97367e-10
4.97068e-10
4.96728e-10
4.96398e-10
4.9613e-10
4.95986e-10
0
0
0
0
0
0
0
5.02823e-10
5.10521e-10
4.91602e-10
4.72813e-10
4.56412e-10
4.43925e-10
4.27679e-10
4.35489e-10
4.42166e-10
4.47748e-10
4.53675e-10
4.60428e-10
4.67969e-10
4.76002e-10
4.84151e-10
4.9203e-10
4.99274e-10
5.05579e-10
5.10754e-10
5.14741e-10
5.17599e-10
5.19494e-10
5.20648e-10
5.21295e-10
5.21633e-10
5.21796e-10
5.21848e-10
5.21795e-10
5.21632e-10
5.2135e-10
5.20978e-10
5.20552e-10
5.2014e-10
5.19802e-10
5.19618e-10
0
0
0
0
0
0
0
5.10869e-10
5.07861e-10
4.88341e-10
4.69925e-10
4.51619e-10
3.05236e-10
4.16082e-10
4.35256e-10
4.46422e-10
4.55444e-10
4.64394e-10
4.73909e-10
4.84005e-10
4.94412e-10
5.04751e-10
5.14621e-10
5.23618e-10
5.31412e-10
5.37805e-10
5.42733e-10
5.46264e-10
5.4861e-10
5.50042e-10
5.50841e-10
5.51251e-10
5.51439e-10
5.5149e-10
5.51416e-10
5.5122e-10
5.50904e-10
5.50499e-10
5.50036e-10
5.49579e-10
5.49181e-10
5.48949e-10
0
0
0
0
0
0
0
5.12433e-10
5.04995e-10
4.85635e-10
4.67326e-10
4.51311e-10
2.88001e-10
4.06985e-10
4.38252e-10
4.54045e-10
4.66746e-10
4.79063e-10
4.91697e-10
5.04672e-10
5.17721e-10
5.30473e-10
5.42484e-10
5.53288e-10
5.62453e-10
5.69676e-10
5.7509e-10
5.79078e-10
5.81683e-10
5.83314e-10
5.84294e-10
5.84863e-10
5.85194e-10
5.85368e-10
5.85389e-10
5.85237e-10
5.84872e-10
5.84326e-10
5.83668e-10
5.83078e-10
5.82653e-10
5.82455e-10
0
0
0
0
0
0
0
5.09706e-10
5.03736e-10
4.84194e-10
4.65577e-10
4.49605e-10
3.11086e-10
4.04133e-10
4.43632e-10
4.65266e-10
4.82394e-10
4.9852e-10
5.1457e-10
5.3062e-10
5.46414e-10
5.61525e-10
5.75423e-10
5.87589e-10
5.97723e-10
6.06214e-10
6.13055e-10
6.17616e-10
6.20525e-10
6.22267e-10
6.23287e-10
6.2388e-10
6.24201e-10
6.24344e-10
6.24329e-10
6.24165e-10
6.23832e-10
6.23329e-10
6.22706e-10
6.22092e-10
6.21563e-10
6.21258e-10
0
0
0
0
0
0
0
5.04249e-10
5.02823e-10
4.83034e-10
4.64191e-10
4.50759e-10
3.21496e-10
4.04622e-10
4.52239e-10
4.80837e-10
5.03267e-10
5.23622e-10
5.43187e-10
5.62203e-10
5.80424e-10
5.97388e-10
6.12619e-10
6.2581e-10
6.37052e-10
6.46389e-10
6.53452e-10
6.58351e-10
6.61478e-10
6.63345e-10
6.64416e-10
6.65027e-10
6.65365e-10
6.65529e-10
6.65541e-10
6.65411e-10
6.6512e-10
6.64654e-10
6.64041e-10
6.63416e-10
6.62839e-10
6.62482e-10
0
0
0
0
0
0
0
4.96372e-10
5.02871e-10
4.83196e-10
4.63915e-10
1.94829e-10
3.1868e-10
4.10295e-10
4.66447e-10
5.02238e-10
5.30232e-10
5.54836e-10
5.77642e-10
5.9905e-10
6.18908e-10
6.36903e-10
6.52777e-10
6.66485e-10
6.78271e-10
6.87889e-10
6.95045e-10
7.00047e-10
7.03276e-10
7.05216e-10
7.06326e-10
7.06953e-10
7.07311e-10
7.07511e-10
7.07573e-10
7.07497e-10
7.07267e-10
7.06855e-10
7.06278e-10
7.05674e-10
7.0509e-10
7.04715e-10
0
0
0
0
0
0
0
4.80936e-10
5.03438e-10
4.83819e-10
4.64437e-10
1.40629e-10
3.14719e-10
4.21502e-10
4.87727e-10
5.30664e-10
5.63804e-10
5.92068e-10
6.17272e-10
6.40009e-10
6.6041e-10
6.78472e-10
6.94237e-10
7.07864e-10
7.19662e-10
7.29274e-10
7.36362e-10
7.41311e-10
7.44531e-10
7.46483e-10
7.47613e-10
7.4826e-10
7.48647e-10
7.48889e-10
7.49009e-10
7.49003e-10
7.48857e-10
7.48525e-10
7.48014e-10
7.4746e-10
7.46901e-10
7.4653e-10
0
0
0
0
0
0
0
4.46208e-10
5.04173e-10
4.84734e-10
4.65128e-10
1.13636e-10
3.19416e-10
4.40721e-10
5.1687e-10
5.66319e-10
6.0361e-10
6.34303e-10
6.6057e-10
6.83351e-10
7.03173e-10
7.20419e-10
7.35405e-10
7.48424e-10
7.59822e-10
7.69182e-10
7.76077e-10
7.80888e-10
7.84029e-10
7.85947e-10
7.87075e-10
7.87743e-10
7.88164e-10
7.88456e-10
7.88645e-10
7.88722e-10
7.88683e-10
7.88459e-10
7.8805e-10
7.87578e-10
7.87073e-10
7.86725e-10
0
0
0
0
0
0
0
3.66968e-10
5.0469e-10
4.86533e-10
3.26706e-10
9.47403e-11
3.36281e-10
4.68819e-10
5.53154e-10
6.07873e-10
6.47968e-10
6.79626e-10
7.05562e-10
7.27203e-10
7.45508e-10
7.61213e-10
7.74848e-10
7.86827e-10
7.97595e-10
8.06575e-10
8.1316e-10
8.17761e-10
8.20783e-10
8.22646e-10
8.2376e-10
8.2445e-10
8.24921e-10
8.25277e-10
8.25547e-10
8.25724e-10
8.2581e-10
8.25722e-10
8.25452e-10
8.25102e-10
8.24688e-10
8.24384e-10
0
0
0
0
0
0
0
0
5.0488e-10
4.87414e-10
1.00238e-10
7.71702e-11
3.66997e-10
5.0678e-10
5.9572e-10
6.5358e-10
6.94868e-10
7.26061e-10
7.50432e-10
7.69936e-10
7.85963e-10
7.99546e-10
8.11424e-10
8.22179e-10
8.32153e-10
8.40573e-10
8.46783e-10
8.51142e-10
8.54032e-10
8.55854e-10
8.56986e-10
8.57723e-10
8.58258e-10
8.58698e-10
8.59072e-10
8.59376e-10
8.59612e-10
8.59694e-10
8.59599e-10
8.59409e-10
8.5912e-10
8.58881e-10
0
0
0
0
0
0
0
0
5.04979e-10
4.88347e-10
7.06956e-11
6.23062e-11
4.07044e-10
5.5249e-10
6.43003e-10
7.01749e-10
7.42595e-10
7.72056e-10
7.93851e-10
8.10425e-10
8.23574e-10
8.34609e-10
8.4447e-10
8.53937e-10
8.62969e-10
8.70631e-10
8.76434e-10
8.80562e-10
8.83344e-10
8.85156e-10
8.86337e-10
8.87154e-10
8.87794e-10
8.88361e-10
8.88884e-10
8.89358e-10
8.89785e-10
8.90067e-10
8.90168e-10
8.90161e-10
8.90022e-10
8.89863e-10
0
0
0
0
0
0