/*--------------------------------*- C++ -*----------------------------------*\
| =========                 |                                                 |
| \\      /  F ield         | OpenFOAM: The Open Source CFD Toolbox           |
|  \\    /   O peration     | Version:  2406                                  |
|   \\  /    A nd           | Website:  www.openfoam.com                      |
|    \\/     M anipulation  |                                                 |
\*---------------------------------------------------------------------------*/
FoamFile
{
    version     2.0;
    format      ascii;
    arch        "LSB;label=32;scalar=64";
    class       volScalarField;
    location    "0.109";
    object      rho;
}
// * * * * * * * * * * * * * * * * * * * * * * * * * * * * * * * * * * * * * //

dimensions      [1 -3 0 0 0 0 0];

internalField   nonuniform List<scalar> 
8988
(
0.00432101
0.00432575
0.0043321
0.00433667
0.0043395
0.00434063
0.00434123
0.00434152
0.00434193
0.00434235
0.0043425
0.00434258
0.00434272
0.0043429
0.00434308
0.0043432
0.0043433
0.00434341
0.00434353
0.00434364
0.00434377
0.00434391
0.00434407
0.00434425
0.00434443
0.00434464
0.00434487
0.00434513
0.0043454
0.00434569
0.00434601
0.00434636
0.00434673
0.00434711
0.00434752
0.00434795
0.00434839
0.00434883
0.00434924
0.00434958
0.0043498
0.00435015
0.00429782
0.00430289
0.00431433
0.0043259
0.00433575
0.00434055
0.00434189
0.00434357
0.00434535
0.00434567
0.00434517
0.00434526
0.00434555
0.00434552
0.00434538
0.00434535
0.00434528
0.00434518
0.0043451
0.00434502
0.00434497
0.00434495
0.00434494
0.00434496
0.00434498
0.00434503
0.00434513
0.00434523
0.00434532
0.0043454
0.00434555
0.00434573
0.00434587
0.00434599
0.00434611
0.00434624
0.00434635
0.00434644
0.00434649
0.00434648
0.00434639
0.00434647
0.00427769
0.00428409
0.00429885
0.00431268
0.00432505
0.00433663
0.00434225
0.0043432
0.00434456
0.00434688
0.00434768
0.00434717
0.00434732
0.00434766
0.00434765
0.00434757
0.00434751
0.00434742
0.00434729
0.00434715
0.00434701
0.00434688
0.00434675
0.00434661
0.00434645
0.0043463
0.00434618
0.00434609
0.00434598
0.00434586
0.00434576
0.00434567
0.00434554
0.00434537
0.00434515
0.0043449
0.00434461
0.00434427
0.00434391
0.00434359
0.00434328
0.0043432
0.00426353
0.00426972
0.00428508
0.00430122
0.00431686
0.00433205
0.00434055
0.00434394
0.00434535
0.00434847
0.00435043
0.0043501
0.00435005
0.00435057
0.00435073
0.00435061
0.00435051
0.00435038
0.00435019
0.00434996
0.0043497
0.00434941
0.00434907
0.00434871
0.00434833
0.00434793
0.00434751
0.00434704
0.0043465
0.00434594
0.00434538
0.00434481
0.0043442
0.00434356
0.00434289
0.00434219
0.00434145
0.0043407
0.00434
0.0043394
0.00433893
0.00433868
0.00425178
0.00425929
0.00427419
0.00429377
0.00431136
0.00432499
0.00433715
0.00434497
0.00434797
0.00435026
0.00435249
0.00435345
0.00435379
0.00435408
0.00435414
0.00435409
0.00435393
0.00435369
0.00435337
0.00435301
0.0043526
0.00435212
0.00435157
0.00435097
0.00435034
0.00434965
0.00434884
0.00434793
0.00434697
0.00434598
0.00434494
0.00434381
0.00434262
0.00434139
0.00434015
0.00433893
0.00433776
0.00433669
0.00433573
0.00433491
0.00433431
0.00433383
0.00424386
0.00425029
0.0042637
0.00428458
0.0043064
0.00432205
0.00433315
0.00434296
0.00434997
0.00435292
0.0043546
0.00435634
0.00435723
0.00435741
0.00435752
0.00435747
0.00435723
0.00435686
0.00435636
0.00435582
0.00435523
0.00435453
0.00435368
0.00435275
0.00435177
0.00435066
0.00434939
0.00434797
0.0043465
0.00434496
0.00434335
0.00434168
0.00434
0.00433832
0.00433666
0.00433507
0.00433365
0.00433237
0.00433125
0.0043303
0.00432956
0.0043289
0.00423597
0.00424021
0.00425419
0.00427417
0.00429678
0.00431742
0.00433135
0.00434023
0.004348
0.00435359
0.00435621
0.00435782
0.00435893
0.00435932
0.00435943
0.00435947
0.00435928
0.00435891
0.0043583
0.0043576
0.00435686
0.004356
0.00435496
0.0043538
0.00435257
0.00435119
0.00434961
0.00434787
0.00434603
0.0043441
0.00434207
0.00433996
0.00433782
0.00433569
0.0043336
0.00433163
0.00432983
0.00432825
0.00432691
0.00432579
0.00432491
0.00432406
0.00422231
0.0042291
0.00424469
0.00426506
0.00428672
0.00430731
0.0043255
0.00433765
0.00434503
0.00435093
0.00435524
0.00435739
0.00435889
0.00435946
0.0043597
0.0043599
0.00435981
0.00435952
0.00435889
0.00435813
0.00435733
0.00435641
0.00435529
0.00435405
0.0043527
0.00435117
0.00434944
0.00434755
0.00434553
0.00434337
0.00434106
0.00433865
0.00433616
0.00433363
0.00433112
0.0043287
0.00432648
0.00432451
0.00432284
0.00432145
0.00432041
0.00431964
0.00420918
0.00421592
0.00422976
0.00425236
0.00427753
0.00429783
0.00431517
0.0043304
0.00434076
0.00434683
0.00435112
0.00435458
0.00435646
0.0043574
0.00435796
0.00435827
0.00435826
0.00435807
0.00435771
0.0043571
0.00435633
0.00435547
0.0043545
0.00435333
0.00435195
0.00435037
0.00434862
0.00434673
0.00434468
0.00434247
0.00434008
0.00433755
0.00433488
0.00433211
0.00432927
0.00432644
0.00432375
0.00432131
0.00431923
0.00431757
0.0043164
0.00431572
0.00419528
0.00420096
0.00421658
0.00423721
0.00426126
0.00428667
0.00430684
0.00432109
0.00433208
0.00434044
0.00434591
0.0043496
0.00435179
0.00435313
0.00435405
0.00435431
0.00435442
0.00435443
0.0043543
0.0043539
0.00435326
0.00435256
0.00435181
0.00435088
0.00434974
0.00434841
0.00434694
0.0043453
0.00434344
0.00434137
0.00433908
0.00433659
0.00433389
0.00433101
0.00432798
0.00432489
0.00432185
0.00431904
0.00431658
0.0043146
0.00431319
0.00431237
0.00417801
0.00418561
0.00420035
0.00422317
0.00424862
0.00427167
0.00429299
0.00431155
0.00432364
0.00433182
0.00433828
0.00434289
0.00434554
0.00434705
0.00434823
0.00434874
0.00434899
0.00434907
0.00434899
0.00434873
0.00434828
0.0043478
0.00434726
0.00434658
0.00434578
0.0043449
0.00434389
0.00434271
0.00434128
0.00433959
0.00433762
0.00433536
0.00433283
0.00433003
0.00432703
0.00432392
0.00432082
0.00431786
0.00431517
0.00431291
0.00431122
0.0043102
0.00416423
0.00416876
0.00418229
0.00420493
0.00423326
0.0042597
0.00428042
0.00429803
0.00431292
0.00432297
0.00432952
0.00433463
0.00433789
0.00433974
0.00434123
0.00434203
0.00434236
0.00434263
0.00434266
0.00434248
0.00434218
0.00434183
0.00434147
0.00434096
0.00434037
0.00433979
0.00433916
0.00433841
0.00433749
0.00433637
0.00433499
0.0043333
0.00433127
0.00432891
0.00432627
0.00432345
0.00432055
0.00431767
0.00431497
0.00431262
0.00431081
0.00430962
0.0041455
0.00415234
0.00416816
0.00418885
0.00421455
0.00424355
0.00426828
0.00428613
0.00430049
0.00431229
0.00432013
0.00432579
0.00432945
0.00433146
0.00433341
0.00433453
0.00433493
0.00433534
0.00433558
0.00433552
0.00433534
0.00433514
0.00433489
0.00433454
0.00433412
0.00433367
0.00433319
0.00433266
0.00433207
0.00433141
0.00433064
0.00432972
0.00432857
0.00432711
0.00432531
0.00432317
0.00432077
0.00431822
0.00431569
0.00431341
0.0043116
0.00431047
0.0041272
0.0041355
0.00415135
0.00417411
0.00419946
0.00422604
0.0042531
0.00427408
0.00428913
0.00430082
0.00430981
0.00431638
0.00432043
0.00432267
0.00432491
0.00432627
0.00432686
0.00432741
0.00432775
0.00432787
0.00432786
0.00432778
0.00432765
0.00432745
0.0043272
0.00432689
0.00432654
0.00432616
0.00432575
0.00432534
0.00432496
0.0043246
0.00432426
0.00432385
0.00432327
0.00432236
0.00432099
0.00431926
0.00431729
0.00431537
0.00431377
0.00431269
0.00411184
0.00411836
0.00413208
0.00415703
0.00418586
0.00421184
0.00423681
0.00426012
0.00427768
0.00428972
0.00429902
0.00430645
0.0043109
0.00431374
0.00431617
0.00431757
0.00431837
0.00431912
0.00431957
0.00431976
0.00431992
0.00431996
0.00431992
0.00431985
0.00431974
0.00431956
0.0043194
0.00431926
0.00431912
0.00431901
0.00431898
0.00431904
0.00431924
0.00431956
0.00431995
0.00432026
0.00432032
0.00432001
0.0043193
0.00431825
0.00431718
0.00431636
0.00409666
0.00410092
0.00411512
0.00413859
0.00416826
0.00419816
0.00422347
0.00424572
0.0042649
0.00427843
0.00428843
0.00429611
0.00430088
0.00430468
0.00430732
0.00430856
0.00430965
0.00431057
0.0043111
0.0043114
0.0043116
0.00431179
0.00431192
0.00431198
0.00431198
0.00431201
0.00431212
0.00431226
0.00431241
0.00431263
0.00431296
0.00431343
0.00431406
0.00431489
0.00431593
0.00431717
0.00431851
0.00431973
0.00432056
0.00432109
0.0043212
0.00432107
0.00407649
0.00408436
0.00410107
0.0041233
0.00415052
0.00418095
0.00420974
0.0042328
0.00425128
0.00426612
0.00427761
0.0042853
0.00429072
0.00429527
0.00429783
0.00429946
0.00430098
0.0043019
0.00430249
0.004303
0.00430335
0.00430362
0.00430388
0.0043041
0.00430432
0.00430458
0.00430493
0.00430535
0.00430584
0.00430642
0.00430713
0.00430801
0.00430906
0.00431034
0.0043119
0.00431379
0.00431598
0.0043184
0.00432078
0.00432286
0.00432442
0.00432532
0.00406703
0.00407333
0.00408645
0.0041098
0.00413777
0.00416523
0.00419314
0.00421927
0.00423898
0.00425401
0.00426619
0.00427471
0.00428104
0.00428577
0.00428855
0.00429074
0.00429254
0.00429342
0.00429403
0.00429475
0.0042953
0.00429564
0.004296
0.00429644
0.00429691
0.00429742
0.00429801
0.00429869
0.0042995
0.00430043
0.00430154
0.00430284
0.00430434
0.00430609
0.00430813
0.00431053
0.0043133
0.00431641
0.00431975
0.00432289
0.00432538
0.0043271
0.00405812
0.00406193
0.00407454
0.00409603
0.00412307
0.00415231
0.00418025
0.00420533
0.00422634
0.00424263
0.00425525
0.00426466
0.00427145
0.0042766
0.00427991
0.00428222
0.0042842
0.0042854
0.00428616
0.004287
0.00428771
0.00428822
0.00428874
0.00428939
0.00429008
0.00429082
0.00429161
0.00429253
0.00429361
0.00429489
0.00429638
0.00429809
0.00430003
0.00430224
0.00430475
0.00430757
0.00431071
0.00431412
0.00431772
0.0043213
0.00432426
0.00432645
0.00404495
0.0040516
0.00406561
0.0040845
0.0041091
0.00413878
0.0041686
0.00419339
0.00421424
0.00423177
0.00424517
0.00425517
0.0042624
0.00426792
0.00427179
0.00427436
0.0042764
0.0042779
0.00427899
0.00427994
0.00428075
0.00428144
0.00428216
0.00428298
0.00428384
0.00428477
0.0042858
0.00428697
0.00428833
0.00428992
0.00429174
0.00429379
0.00429611
0.00429868
0.00430154
0.00430464
0.00430795
0.00431142
0.00431492
0.00431823
0.00432083
0.00432309
0.00403393
0.00404147
0.0040545
0.00407439
0.00409979
0.00412692
0.00415626
0.00418285
0.00420405
0.0042218
0.00423597
0.00424659
0.00425447
0.00426024
0.00426449
0.00426758
0.0042697
0.00427136
0.00427278
0.00427383
0.00427461
0.00427539
0.00427631
0.0042773
0.00427832
0.00427941
0.00428067
0.0042821
0.0042837
0.00428549
0.00428753
0.00428984
0.00429239
0.00429519
0.0042982
0.00430139
0.00430468
0.00430796
0.00431103
0.00431363
0.00431524
0.00431703
0.00402678
0.00403193
0.00404551
0.00406318
0.00408785
0.00411837
0.00414797
0.00417236
0.00419419
0.00421352
0.00422804
0.00423898
0.00424759
0.00425372
0.00425824
0.00426169
0.004264
0.00426577
0.00426733
0.0042685
0.00426936
0.00427025
0.0042713
0.00427242
0.00427355
0.00427477
0.00427617
0.00427774
0.00427947
0.0042814
0.00428358
0.00428599
0.00428862
0.00429145
0.00429444
0.0042975
0.0043005
0.00430327
0.00430559
0.00430737
0.00430811
0.00430939
0.00401714
0.00402406
0.0040368
0.00405611
0.00408047
0.00410856
0.0041383
0.00416458
0.00418674
0.00420604
0.00422119
0.00423283
0.00424186
0.00424838
0.00425328
0.00425699
0.00425948
0.00426136
0.00426296
0.0042642
0.00426513
0.00426603
0.00426709
0.00426828
0.00426952
0.00427083
0.00427225
0.0042738
0.00427551
0.00427744
0.00427963
0.00428201
0.00428454
0.00428719
0.00428988
0.00429251
0.00429493
0.00429698
0.00429853
0.00429962
0.00429997
0.00430094
0.00400913
0.00401729
0.00403067
0.00404966
0.00407331
0.00410019
0.00413069
0.0041584
0.00418074
0.00419984
0.00421592
0.00422809
0.00423713
0.00424414
0.00424941
0.00425316
0.0042559
0.00425798
0.00425957
0.00426084
0.00426189
0.00426283
0.00426379
0.00426488
0.00426607
0.00426731
0.00426865
0.0042701
0.0042717
0.00427349
0.00427547
0.00427759
0.00427978
0.00428197
0.00428409
0.00428606
0.00428781
0.00428923
0.00429027
0.00429097
0.00429116
0.004292
0.00400403
0.00401203
0.00402553
0.00404319
0.00406571
0.00409492
0.00412615
0.00415273
0.0041751
0.00419532
0.00421195
0.00422417
0.00423352
0.00424107
0.00424657
0.0042503
0.00425315
0.00425537
0.00425699
0.0042582
0.00425919
0.00426008
0.00426098
0.00426199
0.00426308
0.00426416
0.00426526
0.00426646
0.00426779
0.00426924
0.00427078
0.00427238
0.00427398
0.00427554
0.00427703
0.0042784
0.0042796
0.00428061
0.00428136
0.00428185
0.0042819
0.00428265
0.00400154
0.00400584
0.00401731
0.00403726
0.00406321
0.00409128
0.00411978
0.00414718
0.00417125
0.00419121
0.00420777
0.00422073
0.00423056
0.00423843
0.00424413
0.00424811
0.00425118
0.00425344
0.00425501
0.00425616
0.00425706
0.00425781
0.00425855
0.00425935
0.0042602
0.00426101
0.00426177
0.00426255
0.0042634
0.00426433
0.00426531
0.0042663
0.00426729
0.00426827
0.00426921
0.00427007
0.00427085
0.00427154
0.00427206
0.00427239
0.00427235
0.00427298
0.00399893
0.00400055
0.00401097
0.00403205
0.00405918
0.00408782
0.00411409
0.00414191
0.0041676
0.00418777
0.00420455
0.00421796
0.00422819
0.00423617
0.00424201
0.00424626
0.00424939
0.0042516
0.00425318
0.00425432
0.00425508
0.00425563
0.00425613
0.00425664
0.0042571
0.00425752
0.00425791
0.00425825
0.00425857
0.00425891
0.00425927
0.00425967
0.00426009
0.00426054
0.004261
0.00426142
0.00426182
0.0042622
0.0042625
0.00426269
0.0042626
0.00426313
0.00399155
0.00399658
0.00400946
0.00402734
0.00405169
0.00408114
0.00411116
0.00413829
0.00416239
0.00418392
0.00420128
0.00421483
0.0042256
0.00423375
0.00423978
0.00424423
0.00424739
0.00424958
0.00425112
0.00425213
0.00425272
0.00425308
0.00425333
0.00425352
0.0042536
0.00425361
0.00425357
0.00425349
0.00425336
0.00425318
0.00425299
0.00425285
0.00425275
0.00425269
0.00425266
0.00425266
0.00425269
0.00425277
0.00425285
0.00425289
0.00425275
0.00425318
0.00398601
0.00399084
0.00400253
0.00402294
0.00404879
0.00407532
0.00410405
0.0041331
0.00415858
0.00417919
0.00419678
0.00421107
0.00422206
0.00423041
0.00423671
0.00424129
0.00424446
0.00424668
0.00424817
0.00424905
0.00424949
0.00424969
0.00424977
0.00424972
0.00424953
0.00424923
0.00424886
0.0042484
0.00424783
0.0042472
0.00424658
0.00424599
0.00424544
0.00424492
0.00424443
0.004244
0.00424367
0.00424344
0.00424329
0.00424314
0.00424289
0.00424325
0.00397773
0.00398561
0.00399862
0.00401721
0.00403964
0.00406796
0.00409934
0.0041274
0.00415166
0.00417351
0.00419163
0.00420597
0.00421731
0.00422599
0.00423244
0.00423712
0.00424041
0.00424268
0.0042442
0.00424508
0.00424547
0.00424558
0.00424552
0.00424527
0.00424485
0.00424431
0.00424367
0.00424292
0.00424204
0.00424109
0.00424011
0.00423914
0.0042382
0.00423729
0.0042364
0.00423559
0.0042349
0.00423435
0.0042339
0.00423352
0.00423314
0.0042334
0.00397411
0.00397723
0.00398971
0.00400611
0.00403126
0.00406259
0.0040932
0.00411818
0.00414342
0.00416684
0.00418493
0.00419957
0.00421122
0.00422009
0.00422694
0.00423183
0.00423517
0.0042376
0.00423918
0.00423999
0.00424037
0.00424049
0.00424037
0.00424001
0.00423949
0.00423885
0.00423806
0.0042371
0.00423603
0.00423486
0.00423362
0.00423232
0.00423104
0.0042298
0.0042286
0.00422746
0.00422643
0.00422554
0.00422477
0.00422416
0.00422361
0.00422373
0.00396613
0.00396816
0.00397964
0.003997
0.00402365
0.00405419
0.00408306
0.0041087
0.0041353
0.00415896
0.00417681
0.00419203
0.00420405
0.00421306
0.00422026
0.00422528
0.00422877
0.00423143
0.00423306
0.0042338
0.00423425
0.00423442
0.00423424
0.00423382
0.00423326
0.0042326
0.00423177
0.00423075
0.00422959
0.00422834
0.00422695
0.00422547
0.00422396
0.00422247
0.00422101
0.00421961
0.0042183
0.00421708
0.004216
0.00421514
0.00421441
0.00421433
0.00395192
0.00395928
0.0039723
0.00399108
0.00401384
0.00403996
0.00407109
0.00410171
0.00412656
0.00414811
0.00416758
0.00418355
0.00419546
0.00420496
0.00421238
0.00421746
0.00422124
0.00422404
0.00422562
0.00422648
0.00422708
0.00422731
0.00422718
0.00422681
0.00422629
0.00422564
0.0042248
0.0042238
0.00422266
0.00422138
0.00421996
0.00421843
0.00421684
0.00421522
0.00421359
0.00421199
0.00421044
0.00420895
0.0042076
0.00420652
0.00420564
0.00420534
0.00394282
0.00394788
0.00395929
0.00397943
0.0040048
0.00403059
0.0040592
0.00408952
0.00411637
0.0041382
0.00415744
0.00417351
0.0041859
0.00419575
0.00420322
0.00420863
0.00421264
0.00421543
0.00421718
0.00421825
0.00421882
0.00421904
0.00421907
0.00421885
0.00421847
0.00421787
0.0042171
0.00421618
0.0042151
0.00421387
0.0042125
0.00421102
0.00420947
0.00420785
0.00420617
0.00420446
0.00420277
0.00420111
0.0041996
0.00419835
0.00419737
0.00419686
0.00393359
0.00393704
0.00394923
0.00396554
0.0039899
0.0040207
0.00405084
0.00407745
0.00410311
0.00412743
0.00414714
0.0041627
0.00417565
0.00418575
0.00419333
0.00419912
0.00420319
0.004206
0.00420801
0.00420924
0.00420984
0.00421013
0.00421023
0.00421009
0.00420979
0.0042093
0.00420865
0.00420785
0.00420688
0.00420578
0.00420455
0.00420321
0.00420177
0.00420022
0.00419859
0.0041969
0.00419518
0.00419351
0.00419195
0.00419062
0.00418958
0.00418894
0.00391911
0.00392559
0.00393781
0.0039556
0.00397837
0.00400631
0.00403718
0.00406608
0.00409164
0.00411491
0.0041352
0.00415132
0.00416445
0.00417476
0.00418271
0.00418869
0.00419284
0.00419584
0.00419801
0.00419936
0.00420015
0.00420061
0.00420079
0.00420071
0.00420049
0.0042001
0.00419957
0.00419888
0.00419804
0.00419708
0.00419602
0.00419485
0.00419358
0.0041922
0.00419072
0.00418917
0.00418758
0.00418602
0.00418454
0.00418326
0.00418224
0.00418157
0.00390947
0.00391206
0.00392238
0.00394237
0.00396819
0.00399634
0.00402268
0.00405112
0.00407943
0.00410333
0.00412255
0.00413913
0.00415275
0.00416317
0.00417141
0.00417765
0.00418203
0.00418529
0.0041876
0.00418901
0.00418988
0.00419042
0.00419067
0.00419073
0.00419062
0.00419037
0.00418995
0.00418938
0.00418868
0.00418789
0.00418701
0.00418602
0.00418494
0.00418378
0.00418253
0.00418122
0.00417986
0.00417852
0.00417724
0.00417612
0.00417525
0.00417462
0.00389605
0.00390024
0.0039127
0.0039282
0.00395167
0.00398191
0.00401184
0.00403852
0.00406483
0.00408976
0.00411019
0.00412663
0.00414042
0.00415129
0.00415981
0.0041661
0.00417072
0.00417422
0.00417659
0.00417814
0.00417921
0.00417984
0.00418013
0.00418027
0.00418029
0.00418017
0.00417986
0.00417941
0.00417888
0.00417826
0.00417757
0.00417679
0.00417594
0.00417503
0.00417406
0.00417303
0.00417197
0.00417091
0.00416992
0.00416906
0.0041684
0.00416791
0.00388021
0.00388777
0.00390018
0.00391785
0.00393875
0.00396523
0.00399685
0.00402688
0.00405187
0.00407528
0.00409673
0.00411395
0.00412766
0.00413898
0.00414779
0.00415417
0.00415919
0.00416282
0.00416516
0.00416695
0.00416822
0.00416888
0.00416925
0.00416952
0.00416966
0.00416961
0.0041694
0.0041691
0.00416875
0.0041683
0.00416779
0.00416724
0.00416663
0.00416598
0.00416529
0.00416457
0.00416384
0.00416313
0.00416245
0.00416189
0.0041615
0.00416118
0.00386932
0.00387334
0.00388378
0.00390358
0.00392767
0.00395369
0.00398081
0.00401096
0.00403901
0.00406254
0.00408271
0.00410071
0.0041149
0.0041265
0.00413533
0.00414212
0.0041475
0.00415102
0.0041536
0.0041557
0.00415697
0.00415764
0.00415821
0.00415865
0.0041588
0.00415878
0.00415872
0.00415859
0.00415837
0.00415807
0.00415777
0.00415744
0.00415707
0.00415666
0.00415625
0.00415584
0.00415546
0.00415509
0.00415474
0.00415447
0.00415432
0.00415418
0.00385848
0.00386
0.0038696
0.00388726
0.00391332
0.00394156
0.00396844
0.00399545
0.00402399
0.00404933
0.00406959
0.00408721
0.00410209
0.00411388
0.00412288
0.00413021
0.00413553
0.00413916
0.00414217
0.00414427
0.00414544
0.00414637
0.00414715
0.00414759
0.00414773
0.0041479
0.00414802
0.00414798
0.00414785
0.00414771
0.00414759
0.00414745
0.00414728
0.00414712
0.00414697
0.00414684
0.00414675
0.0041467
0.00414665
0.00414663
0.00414668
0.00414668
0.00384292
0.00384758
0.00385978
0.00387429
0.0038967
0.00392639
0.00395611
0.003983
0.00400939
0.00403499
0.00405672
0.00407421
0.00408928
0.00410128
0.00411071
0.00411828
0.00412342
0.00412754
0.00413086
0.00413274
0.00413394
0.00413513
0.004136
0.00413639
0.00413663
0.00413699
0.00413724
0.00413727
0.00413727
0.0041373
0.00413731
0.0041373
0.00413731
0.00413736
0.00413745
0.00413756
0.00413769
0.00413786
0.00413805
0.00413826
0.00413846
0.00413856
0.00382724
0.00383426
0.00384658
0.00386388
0.00388578
0.00390986
0.00393934
0.00397022
0.0039973
0.00402112
0.00404267
0.00406119
0.00407661
0.00408865
0.0040985
0.00410619
0.0041115
0.00411598
0.00411933
0.00412125
0.00412276
0.00412404
0.00412482
0.00412527
0.00412572
0.00412612
0.00412633
0.00412646
0.00412663
0.00412679
0.0041269
0.00412702
0.00412718
0.0041274
0.00412768
0.00412798
0.00412827
0.00412859
0.00412893
0.00412929
0.00412959
0.00412976
0.00381468
0.00382148
0.00383384
0.00385117
0.00387305
0.00389619
0.00392551
0.00395762
0.00398492
0.00400753
0.00402957
0.00404891
0.00406421
0.0040766
0.00408657
0.00409407
0.00409996
0.00410453
0.00410756
0.00410975
0.00411157
0.00411284
0.00411361
0.00411422
0.00411477
0.00411517
0.00411539
0.00411564
0.00411593
0.00411617
0.00411637
0.00411659
0.00411688
0.00411722
0.00411762
0.00411803
0.00411843
0.00411885
0.00411928
0.0041197
0.00412005
0.00412027
0.00380619
0.00380903
0.0038202
0.00383531
0.00385825
0.00388661
0.00391565
0.00394232
0.00396985
0.00399577
0.00401757
0.00403607
0.00405181
0.00406467
0.00407452
0.00408246
0.00408846
0.00409271
0.00409619
0.00409879
0.00410036
0.0041015
0.00410256
0.00410338
0.00410385
0.00410415
0.00410451
0.00410485
0.00410513
0.00410541
0.00410572
0.00410605
0.0041064
0.00410678
0.00410722
0.00410769
0.00410818
0.00410865
0.00410911
0.00410953
0.00410988
0.00411013
0.00379245
0.00379683
0.003809
0.00382269
0.00384414
0.00387345
0.00390319
0.00393012
0.00395639
0.00398253
0.0040052
0.00402374
0.00403965
0.00405243
0.00406236
0.00407102
0.00407714
0.00408099
0.0040848
0.00408777
0.00408915
0.00409017
0.00409144
0.00409243
0.00409285
0.00409313
0.00409361
0.00409402
0.00409425
0.00409452
0.0040949
0.00409531
0.0040957
0.00409608
0.00409649
0.00409698
0.0040975
0.004098
0.00409844
0.00409883
0.00409915
0.00409939
0.0037782
0.00378551
0.00379692
0.00381264
0.00383231
0.00385862
0.00388917
0.00391822
0.003944
0.00396952
0.00399232
0.00401126
0.00402757
0.00404033
0.00405073
0.00405952
0.00406532
0.00406962
0.00407368
0.00407642
0.00407775
0.0040791
0.00408043
0.00408128
0.00408167
0.00408211
0.00408263
0.00408299
0.00408321
0.00408351
0.00408389
0.0040843
0.00408469
0.00408507
0.00408545
0.0040859
0.00408641
0.00408689
0.00408729
0.00408762
0.00408789
0.00408811
0.00376662
0.00377337
0.00378478
0.00379996
0.00381958
0.00384573
0.00387661
0.00390594
0.00393082
0.00395631
0.00397976
0.00399886
0.00401514
0.00402837
0.00403922
0.00404769
0.00405334
0.00405835
0.00406259
0.00406499
0.00406637
0.00406795
0.0040693
0.00407003
0.00407047
0.00407099
0.00407146
0.00407174
0.004072
0.00407232
0.00407266
0.00407301
0.00407338
0.00407373
0.00407407
0.00407447
0.00407491
0.00407534
0.0040757
0.00407598
0.00407618
0.00407636
0.00375454
0.00376161
0.00377281
0.00378713
0.00380685
0.00383386
0.00386406
0.00389191
0.00391793
0.00394392
0.00396695
0.0039862
0.00400294
0.00401611
0.00402721
0.00403581
0.0040416
0.004047
0.00405126
0.0040534
0.00405508
0.00405684
0.00405806
0.00405863
0.00405915
0.00405972
0.00406011
0.00406035
0.00406062
0.00406091
0.0040612
0.00406149
0.00406178
0.00406206
0.00406236
0.0040627
0.00406305
0.00406339
0.00406368
0.0040639
0.00406403
0.00406417
0.00374229
0.00374863
0.00376002
0.00377608
0.00379661
0.00381948
0.0038483
0.00387955
0.0039077
0.00393018
0.00395279
0.00397376
0.00399015
0.00400336
0.00401504
0.00402351
0.00402977
0.00403525
0.00403904
0.00404156
0.00404384
0.00404555
0.00404648
0.00404712
0.00404778
0.0040483
0.00404857
0.00404877
0.00404901
0.00404926
0.00404951
0.00404974
0.00404993
0.00405012
0.00405036
0.00405062
0.00405086
0.00405109
0.0040513
0.00405145
0.00405151
0.00405162
0.003734
0.00373538
0.00374401
0.00376195
0.00378415
0.00380868
0.00383534
0.00386467
0.00389337
0.00391749
0.00393983
0.00396078
0.00397722
0.00399096
0.00400257
0.00401114
0.00401806
0.00402343
0.00402713
0.00403002
0.00403225
0.0040337
0.0040347
0.00403553
0.00403616
0.00403654
0.00403679
0.00403699
0.00403718
0.00403736
0.00403754
0.00403769
0.0040378
0.00403793
0.00403807
0.00403823
0.00403836
0.00403849
0.00403861
0.00403869
0.00403869
0.00403878
0.00371776
0.00372405
0.00373427
0.00374978
0.00376931
0.00379401
0.00382368
0.0038528
0.00387812
0.00390342
0.00392764
0.00394751
0.00396408
0.00397826
0.00398958
0.00399874
0.00400592
0.00401101
0.0040149
0.004018
0.00402018
0.00402167
0.00402281
0.00402369
0.00402428
0.00402463
0.00402482
0.00402495
0.00402508
0.00402521
0.00402531
0.00402537
0.00402542
0.00402546
0.0040255
0.00402554
0.00402559
0.00402564
0.00402567
0.00402568
0.00402565
0.00402571
0.00370557
0.00370998
0.00371957
0.00373667
0.00375918
0.00378099
0.00380842
0.00383837
0.00386522
0.00389012
0.00391385
0.00393411
0.00395101
0.00396523
0.00397692
0.00398611
0.00399322
0.00399878
0.00400284
0.00400564
0.00400784
0.00400959
0.00401077
0.00401147
0.00401195
0.00401232
0.00401256
0.00401265
0.00401272
0.00401277
0.00401281
0.00401282
0.00401281
0.00401277
0.0040127
0.00401265
0.00401261
0.00401257
0.00401252
0.00401247
0.00401242
0.00401245
0.00369386
0.00369762
0.00370851
0.00372132
0.00374143
0.00376918
0.00379784
0.00382428
0.0038502
0.00387662
0.00390023
0.00392052
0.00393772
0.00395212
0.0039639
0.00397305
0.00398025
0.00398591
0.00399003
0.00399308
0.00399549
0.0039972
0.00399823
0.00399889
0.00399943
0.00399985
0.00400003
0.00400006
0.00400009
0.00400011
0.00400008
0.00400003
0.00399994
0.00399983
0.0039997
0.00399958
0.00399946
0.00399934
0.00399922
0.00399911
0.003999
0.00399901
0.00367821
0.00368514
0.00369545
0.0037099
0.00372793
0.0037521
0.00378269
0.00381225
0.00383684
0.00386151
0.00388611
0.00390695
0.0039239
0.00393886
0.00395044
0.00395938
0.00396711
0.00397302
0.0039772
0.00398035
0.00398259
0.00398411
0.00398524
0.00398611
0.00398669
0.00398701
0.00398713
0.00398719
0.00398719
0.00398715
0.00398707
0.00398699
0.00398687
0.00398671
0.00398652
0.00398633
0.00398615
0.00398597
0.00398579
0.00398562
0.00398545
0.00398543
0.00366738
0.00366967
0.00367846
0.00369607
0.0037177
0.00374092
0.00376595
0.00379526
0.00382422
0.00384901
0.00387174
0.00389227
0.00391005
0.00392534
0.00393678
0.00394638
0.00395428
0.00395918
0.00396304
0.00396696
0.00396966
0.00397079
0.0039719
0.003973
0.00397361
0.00397379
0.00397397
0.0039741
0.00397405
0.00397393
0.00397381
0.00397371
0.00397357
0.00397338
0.00397314
0.0039729
0.00397266
0.00397244
0.00397223
0.00397202
0.00397181
0.00397176
0.00365307
0.00365725
0.0036681
0.00368065
0.00370032
0.0037269
0.00375487
0.003781
0.00380737
0.00383434
0.00385826
0.00387791
0.00389584
0.00391086
0.00392216
0.00393254
0.00394073
0.00394528
0.00394929
0.00395344
0.00395615
0.00395726
0.00395849
0.00395959
0.00396006
0.00396021
0.00396044
0.00396059
0.0039605
0.00396037
0.0039603
0.0039602
0.00396004
0.0039598
0.00395954
0.00395928
0.00395903
0.00395879
0.00395856
0.00395833
0.0039581
0.00395804
0.00363751
0.0036442
0.00365418
0.00366823
0.00368654
0.00371127
0.00373975
0.0037673
0.00379214
0.00381855
0.0038436
0.00386355
0.00388074
0.00389593
0.00390803
0.00391823
0.0039258
0.00393094
0.00393579
0.00393964
0.00394173
0.00394324
0.0039447
0.00394571
0.00394614
0.0039464
0.00394667
0.00394678
0.0039467
0.00394659
0.0039465
0.00394638
0.0039462
0.00394597
0.00394574
0.00394549
0.00394524
0.003945
0.00394477
0.00394455
0.00394431
0.00394424
0.00362788
0.0036286
0.00363648
0.00365166
0.00367436
0.00369938
0.00372328
0.00374932
0.00377827
0.00380445
0.00382723
0.00384801
0.00386588
0.00388101
0.00389347
0.0039033
0.00391087
0.00391676
0.00392163
0.00392517
0.0039274
0.00392912
0.00393055
0.00393148
0.00393189
0.00393217
0.00393247
0.00393262
0.00393257
0.00393248
0.00393242
0.0039323
0.00393211
0.00393191
0.00393172
0.00393152
0.00393129
0.00393107
0.00393087
0.00393065
0.00393041
0.00393036
0.00361338
0.00361413
0.00362182
0.00363701
0.00365989
0.00368438
0.0037083
0.00373333
0.00376271
0.00379004
0.00381145
0.00383168
0.00385047
0.00386585
0.00387813
0.00388778
0.0038961
0.00390217
0.00390637
0.00391008
0.00391283
0.00391453
0.00391585
0.00391687
0.00391744
0.00391778
0.00391807
0.00391821
0.00391817
0.00391813
0.00391809
0.00391797
0.0039178
0.00391765
0.00391752
0.00391736
0.00391717
0.00391699
0.00391682
0.00391661
0.00391638
0.00391635
0.0035942
0.00360084
0.0036111
0.00362423
0.00364126
0.00366542
0.0036936
0.00372057
0.00374659
0.00377206
0.00379537
0.0038165
0.00383472
0.00385019
0.00386246
0.00387252
0.00388118
0.0038869
0.00389114
0.00389519
0.00389797
0.0038996
0.00390102
0.00390216
0.00390279
0.00390312
0.00390339
0.00390352
0.00390352
0.00390351
0.00390349
0.00390341
0.0039033
0.00390321
0.00390311
0.00390298
0.00390285
0.00390272
0.00390259
0.00390242
0.00390219
0.0039022
0.00357907
0.00358518
0.00359544
0.00360969
0.00362823
0.00364893
0.00367633
0.00370526
0.00373131
0.00375469
0.00377922
0.0038014
0.00381876
0.00383412
0.00384622
0.0038569
0.00386571
0.00387092
0.00387557
0.00388003
0.00388273
0.00388415
0.00388581
0.00388714
0.00388772
0.003888
0.00388835
0.0038886
0.00388866
0.00388867
0.00388865
0.00388864
0.00388863
0.00388858
0.0038885
0.0038884
0.00388833
0.00388827
0.00388819
0.00388805
0.00388783
0.00388789
0.00356556
0.00356927
0.00357809
0.0035943
0.00361424
0.0036342
0.00365791
0.00368747
0.00371634
0.00373948
0.0037622
0.00378356
0.00380226
0.00381798
0.00382994
0.00384114
0.00384977
0.0038547
0.00385998
0.00386463
0.00386708
0.00386834
0.00387029
0.0038719
0.00387244
0.00387257
0.00387306
0.00387348
0.00387356
0.00387356
0.0038736
0.00387367
0.00387371
0.0038737
0.00387366
0.00387362
0.00387361
0.0038736
0.00387357
0.00387346
0.00387322
0.00387336
0.00355112
0.00355453
0.00356499
0.00357509
0.00359378
0.00361988
0.00364604
0.00366966
0.00369608
0.00372296
0.0037464
0.00376678
0.00378561
0.0038014
0.00381361
0.00382475
0.00383333
0.00383901
0.0038446
0.00384882
0.00385079
0.00385287
0.00385501
0.00385622
0.00385643
0.00385694
0.00385766
0.00385802
0.0038581
0.00385821
0.00385832