/*--------------------------------*- C++ -*----------------------------------*\
| =========                 |                                                 |
| \\      /  F ield         | OpenFOAM: The Open Source CFD Toolbox           |
|  \\    /   O peration     | Version:  2406                                  |
|   \\  /    A nd           | Website:  www.openfoam.com                      |
|    \\/     M anipulation  |                                                 |
\*---------------------------------------------------------------------------*/
FoamFile
{
    version     2.0;
    format      ascii;
    arch        "LSB;label=32;scalar=64";
    class       volScalarField;
    location    "0.109";
    object      rho_0;
}
// * * * * * * * * * * * * * * * * * * * * * * * * * * * * * * * * * * * * * //

dimensions      [1 -3 0 0 0 0 0];

internalField   nonuniform List<scalar> 
8988
(
0.00432104
0.0043257
0.00433207
0.00433675
0.00433952
0.0043406
0.00434115
0.00434151
0.00434197
0.00434236
0.00434248
0.00434257
0.00434271
0.0043429
0.00434307
0.00434319
0.00434329
0.0043434
0.00434352
0.00434364
0.00434376
0.00434391
0.00434407
0.00434424
0.00434443
0.00434463
0.00434487
0.00434512
0.00434539
0.00434568
0.00434601
0.00434636
0.00434672
0.00434711
0.00434752
0.00434795
0.00434839
0.00434883
0.00434925
0.00434958
0.00434981
0.00435016
0.00429789
0.00430281
0.00431407
0.00432615
0.00433587
0.00434019
0.00434175
0.00434378
0.00434542
0.00434553
0.00434508
0.00434527
0.00434555
0.00434548
0.00434535
0.00434533
0.00434526
0.00434516
0.00434508
0.004345
0.00434495
0.00434493
0.00434493
0.00434494
0.00434497
0.00434502
0.00434512
0.00434522
0.00434531
0.00434539
0.00434555
0.00434573
0.00434588
0.00434599
0.00434612
0.00434624
0.00434636
0.00434645
0.0043465
0.0043465
0.00434641
0.00434649
0.0042782
0.00428391
0.00429823
0.00431249
0.00432546
0.00433662
0.00434213
0.00434293
0.00434465
0.00434701
0.00434757
0.00434705
0.0043473
0.00434764
0.0043476
0.00434753
0.00434748
0.00434738
0.00434726
0.00434712
0.00434698
0.00434685
0.00434672
0.00434658
0.00434642
0.00434628
0.00434617
0.00434607
0.00434597
0.00434585
0.00434575
0.00434567
0.00434555
0.00434538
0.00434516
0.00434492
0.00434463
0.00434429
0.00434394
0.00434361
0.00434331
0.00434323
0.00426403
0.00426951
0.00428461
0.00430101
0.00431681
0.00433249
0.00434063
0.00434332
0.00434527
0.00434873
0.00435045
0.00434985
0.00435
0.00435058
0.00435067
0.00435055
0.00435047
0.00435034
0.00435015
0.00434992
0.00434967
0.00434937
0.00434904
0.00434868
0.0043483
0.00434791
0.00434749
0.00434702
0.00434649
0.00434593
0.00434538
0.00434481
0.00434421
0.00434357
0.00434291
0.00434221
0.00434147
0.00434073
0.00434003
0.00433943
0.00433896
0.00433871
0.00425178
0.00425918
0.00427439
0.00429371
0.0043109
0.0043249
0.0043374
0.00434496
0.00434774
0.00435023
0.0043525
0.00435337
0.00435374
0.00435403
0.00435409
0.00435404
0.00435389
0.00435365
0.00435333
0.00435298
0.00435257
0.00435208
0.00435153
0.00435094
0.00435032
0.00434962
0.00434882
0.00434791
0.00434696
0.00434598
0.00434494
0.00434382
0.00434264
0.00434141
0.00434017
0.00433895
0.00433779
0.00433672
0.00433576
0.00433494
0.00433433
0.00433386
0.00424348
0.00425033
0.00426387
0.00428482
0.00430649
0.00432147
0.00433301
0.00434333
0.00435006
0.00435264
0.00435452
0.00435638
0.00435718
0.00435737
0.00435749
0.00435743
0.00435719
0.00435682
0.00435632
0.00435578
0.0043552
0.00435449
0.00435364
0.00435272
0.00435175
0.00435064
0.00434937
0.00434796
0.0043465
0.00434496
0.00434335
0.00434169
0.00434001
0.00433833
0.00433668
0.00433509
0.00433367
0.0043324
0.00433128
0.00433032
0.00432958
0.00432892
0.00423588
0.00424028
0.00425395
0.00427411
0.00429724
0.00431756
0.00433087
0.00434012
0.00434821
0.0043536
0.00435613
0.00435783
0.00435891
0.00435928
0.00435941
0.00435946
0.00435927
0.00435889
0.00435827
0.00435758
0.00435684
0.00435599
0.00435494
0.00435379
0.00435256
0.00435118
0.00434959
0.00434786
0.00434602
0.00434409
0.00434206
0.00433996
0.00433782
0.00433569
0.00433361
0.00433164
0.00432984
0.00432827
0.00432693
0.00432581
0.00432493
0.00432408
0.00422255
0.00422905
0.00424476
0.00426482
0.00428651
0.00430762
0.00432569
0.00433747
0.00434494
0.00435101
0.00435526
0.0043574
0.00435889
0.00435945
0.0043597
0.00435992
0.00435982
0.00435952
0.00435887
0.00435813
0.00435733
0.0043564
0.00435529
0.00435404
0.00435269
0.00435116
0.00434943
0.00434754
0.00434552
0.00434336
0.00434105
0.00433864
0.00433615
0.00433362
0.00433111
0.0043287
0.00432648
0.00432452
0.00432285
0.00432146
0.00432043
0.00431965
0.0042089
0.00421603
0.00423006
0.0042526
0.00427743
0.00429757
0.00431527
0.00433066
0.00434072
0.00434676
0.00435119
0.00435465
0.00435647
0.00435742
0.00435799
0.00435829
0.00435828
0.0043581
0.00435772
0.00435711
0.00435634
0.00435549
0.00435452
0.00435334
0.00435195
0.00435037
0.00434862
0.00434672
0.00434467
0.00434245
0.00434006
0.00433753
0.00433486
0.00433209
0.00432925
0.00432643
0.00432374
0.00432131
0.00431923
0.00431756
0.0043164
0.00431571
0.00419581
0.00420088
0.00421626
0.00423708
0.00426148
0.004287
0.00430675
0.004321
0.00433217
0.00434053
0.00434596
0.00434965
0.00435184
0.0043532
0.0043541
0.00435435
0.00435447
0.00435449
0.00435436
0.00435395
0.0043533
0.00435261
0.00435185
0.00435091
0.00434976
0.00434843
0.00434695
0.0043453
0.00434344
0.00434136
0.00433906
0.00433656
0.00433387
0.00433098
0.00432795
0.00432486
0.00432183
0.00431901
0.00431656
0.00431458
0.00431317
0.00431236
0.00417799
0.00418564
0.00420078
0.00422336
0.00424819
0.00427158
0.00429343
0.00431175
0.00432357
0.00433179
0.00433843
0.00434297
0.00434558
0.00434712
0.0043483
0.00434881
0.00434906
0.00434914
0.00434905
0.00434879
0.00434834
0.00434786
0.00434732
0.00434663
0.00434582
0.00434494
0.00434393
0.00434273
0.00434129
0.00433959
0.00433761
0.00433535
0.0043328
0.00433
0.00432699
0.00432388
0.00432077
0.00431781
0.00431512
0.00431286
0.00431118
0.00431016
0.00416402
0.00416896
0.00418231
0.00420529
0.00423365
0.00425945
0.00428029
0.00429822
0.00431317
0.00432298
0.00432958
0.00433474
0.00433795
0.00433981
0.00434132
0.0043421
0.00434244
0.00434271
0.00434273
0.00434255
0.00434224
0.00434191
0.00434153
0.00434101
0.00434043
0.00433984
0.00433921
0.00433845
0.00433753
0.00433639
0.004335
0.0043333
0.00433126
0.00432888
0.00432623
0.0043234
0.0043205
0.00431761
0.0043149
0.00431256
0.00431074
0.00430955
0.00414628
0.00415225
0.00416768
0.00418871
0.00421475
0.0042441
0.00426826
0.00428599
0.00430058
0.0043125
0.0043202
0.00432588
0.00432951
0.00433155
0.00433353
0.00433461
0.004335
0.00433543
0.00433566
0.00433559
0.00433541
0.00433521
0.00433496
0.0043346
0.00433418
0.00433373
0.00433325
0.00433271
0.00433212
0.00433145
0.00433068
0.00432974
0.00432857
0.0043271
0.00432528
0.00432312
0.00432071
0.00431815
0.00431561
0.00431333
0.00431152
0.00431038
0.00412739
0.00413556
0.00415181
0.00417392
0.00419908
0.00422631
0.00425357
0.00427406
0.00428904
0.00430097
0.00430996
0.00431648
0.00432046
0.00432276
0.00432504
0.00432635
0.00432694
0.0043275
0.00432784
0.00432794
0.00432794
0.00432786
0.00432773
0.00432753
0.00432727
0.00432696
0.0043266
0.00432622
0.00432581
0.00432539
0.004325
0.00432464
0.00432428
0.00432386
0.00432326
0.00432232
0.00432093
0.00431918
0.0043172
0.00431527
0.00431366
0.00431258
0.00411136
0.00411854
0.00413271
0.00415739
0.00418562
0.00421159
0.00423704
0.00426051
0.00427765
0.00428974
0.00429918
0.00430657
0.00431094
0.00431384
0.00431628
0.00431764
0.00431846
0.00431922
0.00431965
0.00431985
0.00432
0.00432004
0.00432
0.00431993
0.00431981
0.00431963
0.00431947
0.00431932
0.00431917
0.00431905
0.00431902
0.00431907
0.00431926
0.00431958
0.00431995
0.00432024
0.00432028
0.00431994
0.00431921
0.00431814
0.00431705
0.00431623
0.00409657
0.00410112
0.00411508
0.00413881
0.00416868
0.00419807
0.00422337
0.00424594
0.00426507
0.00427844
0.00428854
0.0042962
0.00430095
0.00430481
0.00430739
0.00430863
0.00430975
0.00431067
0.00431119
0.00431148
0.00431169
0.00431188
0.004312
0.00431205
0.00431205
0.00431207
0.00431218
0.00431231
0.00431246
0.00431267
0.00431299
0.00431345
0.00431408
0.0043149
0.00431594
0.00431716
0.00431849
0.00431968
0.00432048
0.00432098
0.00432107
0.00432093
0.00407685
0.00408427
0.00410121
0.00412312
0.00415041
0.00418136
0.00420989
0.00423274
0.00425134
0.00426626
0.00427769
0.00428533
0.00429084
0.00429538
0.00429788
0.00429955
0.00430108
0.00430197
0.00430256
0.00430308
0.00430342
0.0043037
0.00430395
0.00430416
0.00430438
0.00430464
0.00430498
0.0043054
0.00430588
0.00430645
0.00430716
0.00430803
0.00430907
0.00431035
0.0043119
0.00431377
0.00431596
0.00431836
0.00432071
0.00432277
0.00432432
0.0043252
0.00406654
0.00407355
0.0040872
0.00411004
0.0041374
0.004165
0.00419344
0.00421957
0.00423891
0.00425407
0.00426629
0.00427477
0.00428114
0.00428584
0.0042886
0.00429084
0.00429262
0.00429346
0.0042941
0.00429483
0.00429536
0.0042957
0.00429606
0.00429649
0.00429697
0.00429747
0.00429805
0.00429873
0.00429953
0.00430046
0.00430156
0.00430284
0.00430434
0.00430608
0.00430812
0.0043105
0.00431326
0.00431637
0.0043197
0.00432282
0.0043253
0.00432701
0.00405814
0.00406207
0.00407444
0.00409611
0.00412334
0.00415234
0.00418023
0.00420543
0.00422642
0.00424268
0.00425532
0.00426472
0.00427153
0.00427667
0.00427995
0.00428229
0.00428427
0.00428544
0.00428621
0.00428707
0.00428777
0.00428826
0.00428879
0.00428944
0.00429013
0.00429085
0.00429164
0.00429255
0.00429363
0.00429491
0.00429639
0.00429809
0.00430002
0.00430222
0.00430473
0.00430754
0.00431068
0.00431408
0.00431767
0.00432125
0.00432421
0.00432639
0.00404528
0.00405161
0.0040657
0.00408411
0.00410899
0.00413928
0.00416873
0.00419323
0.0042143
0.00423187
0.00424521
0.00425521
0.00426245
0.00426798
0.00427183
0.0042744
0.00427645
0.00427794
0.00427903
0.00427999
0.00428079
0.00428148
0.0042822
0.00428301
0.00428387
0.00428479
0.00428581
0.00428699
0.00428834
0.00428992
0.00429174
0.00429379
0.00429609
0.00429866
0.00430151
0.0043046
0.00430792
0.00431138
0.00431488
0.0043182
0.00432082
0.00432307
0.00403377
0.0040417
0.00405492
0.00407444
0.00409927
0.00412687
0.00415663
0.00418284
0.00420398
0.00422186
0.00423602
0.0042466
0.0042545
0.00426027
0.00426453
0.00426761
0.00426972
0.00427139
0.00427281
0.00427385
0.00427462
0.00427541
0.00427633
0.00427732
0.00427833
0.00427942
0.00428068
0.0042821
0.0042837
0.00428549
0.00428752
0.00428982
0.00429237
0.00429516
0.00429818
0.00430136
0.00430465
0.00430793
0.00431101
0.00431363
0.00431526
0.00431705
0.00402737
0.00403175
0.00404497
0.00406294
0.0040882
0.00411873
0.0041478
0.00417216
0.00419425
0.00421364
0.004228
0.00423898
0.0042476
0.00425371
0.00425826
0.0042617
0.00426399
0.00426578
0.00426734
0.0042685
0.00426935
0.00427026
0.00427131
0.00427242
0.00427355
0.00427477
0.00427617
0.00427774
0.00427946
0.00428138
0.00428356
0.00428597
0.0042886
0.00429143
0.00429442
0.00429748
0.00430048
0.00430326
0.0043056
0.00430739
0.00430814
0.00430943
0.00401706
0.0040241
0.00403703
0.00405603
0.00408008
0.00410868
0.00413844
0.00416446
0.0041867
0.00420608
0.00422116
0.00423282
0.00424185
0.00424836
0.00425328
0.00425697
0.00425945
0.00426134
0.00426295
0.00426418
0.00426511
0.00426602
0.00426708
0.00426827
0.0042695
0.00427081
0.00427223
0.00427378
0.00427549
0.00427742
0.00427961
0.00428199
0.00428452
0.00428717
0.00428987
0.0042925
0.00429493
0.004297
0.00429856
0.00429966
0.00430001
0.00430099
0.00400903
0.00401752
0.00403092
0.00404955
0.00407253
0.00410021
0.00413113
0.00415834
0.00418048
0.00419985
0.00421592
0.00422802
0.00423708
0.00424412
0.00424937
0.00425311
0.00425586
0.00425794
0.00425954
0.0042608
0.00426185
0.00426279
0.00426375
0.00426485
0.00426603
0.00426728
0.00426861
0.00427007
0.00427167
0.00427347
0.00427545
0.00427757
0.00427977
0.00428197
0.0042841
0.00428608
0.00428783
0.00428927
0.00429031
0.00429102
0.00429121
0.00429205
0.00400455
0.00401175
0.00402564
0.00404235
0.00406534
0.00409551
0.0041265
0.00415235
0.0041748
0.00419544
0.00421188
0.00422405
0.00423347
0.00424104
0.0042465
0.00425022
0.0042531
0.00425532
0.00425693
0.00425814
0.00425914
0.00426003
0.00426093
0.00426195
0.00426303
0.00426411
0.00426522
0.00426643
0.00426776
0.00426922
0.00427077
0.00427237
0.00427398
0.00427556
0.00427705
0.00427843
0.00427964
0.00428065
0.0042814
0.0042819
0.00428196
0.00428271
0.00400118
0.00400582
0.00401739
0.00403731
0.00406324
0.00409094
0.00411968
0.00414721
0.00417115
0.00419111
0.00420771
0.00422064
0.0042305
0.00423838
0.00424404
0.00424802
0.00425111
0.00425337
0.00425493
0.00425609
0.00425699
0.00425775
0.00425849
0.0042593
0.00426015
0.00426097
0.00426173
0.00426252
0.00426338
0.00426432
0.00426531
0.00426631
0.00426731
0.00426829
0.00426924
0.00427011
0.0042709
0.00427159
0.00427211
0.00427245
0.00427241
0.00427304
0.00399848
0.00400045
0.00401078
0.00403259
0.00405946
0.00408709
0.00411375
0.00414211
0.00416761
0.00418759
0.00420448
0.00421786
0.0042281
0.0042361
0.00424192
0.00424617
0.00424931
0.00425152
0.00425311
0.00425424
0.00425501
0.00425556
0.00425607
0.00425658
0.00425705
0.00425747
0.00425787
0.00425822
0.00425855
0.0042589
0.00425927
0.00425968
0.00426011
0.00426057
0.00426103
0.00426146
0.00426186
0.00426225
0.00426256
0.00426275
0.00426266
0.00426319
0.0039917
0.00399639
0.0040093
0.00402709
0.00405167
0.00408119
0.0041111
0.00413804
0.00416231
0.0041839
0.00420117
0.00421474
0.00422552
0.00423366
0.00423969
0.00424415
0.0042473
0.0042495
0.00425105
0.00425206
0.00425264
0.00425301
0.00425327
0.00425346
0.00425355
0.00425357
0.00425353
0.00425347
0.00425335
0.00425316
0.00425299
0.00425286
0.00425277
0.00425272
0.0042527
0.0042527
0.00425274
0.00425282
0.0042529
0.00425295
0.00425281
0.00425325
0.00398541
0.00399097
0.00400295
0.00402278
0.0040487
0.00407496
0.00410402
0.00413324
0.00415844
0.00417903
0.00419674
0.004211
0.00422197
0.00423033
0.00423663
0.00424121
0.00424438
0.00424661
0.0042481
0.00424898
0.00424942
0.00424963
0.00424972
0.00424967
0.00424948
0.00424919
0.00424883
0.00424837
0.00424781
0.00424719
0.00424657
0.004246
0.00424546
0.00424494
0.00424445
0.00424403
0.00424371
0.00424349
0.00424334
0.00424319
0.00424295
0.00424331
0.00397799
0.00398557
0.00399878
0.00401659
0.00403922
0.00406827
0.00409954
0.00412714
0.0041515
0.00417351
0.00419156
0.00420589
0.00421725
0.00422592
0.00423237
0.00423705
0.00424034
0.00424262
0.00424414
0.00424502
0.00424542
0.00424553
0.00424547
0.00424522
0.00424481
0.00424427
0.00424364
0.00424289
0.00424202
0.00424108
0.0042401
0.00423914
0.0042382
0.0042373
0.00423642
0.00423561
0.00423493
0.00423439
0.00423395
0.00423357
0.00423319
0.00423346
0.00397462
0.00397698
0.00398869
0.00400596
0.00403206
0.00406301
0.00409249
0.00411784
0.00414364
0.0041669
0.00418481
0.00419951
0.00421116
0.00422005
0.00422691
0.00423177
0.00423512
0.00423756
0.00423913
0.00423994
0.00424033
0.00424045
0.00424033
0.00423997
0.00423946
0.00423882
0.00423803
0.00423708
0.004236
0.00423485
0.0042336
0.00423232
0.00423104
0.00422981
0.00422861
0.00422747
0.00422646
0.00422557
0.00422481
0.00422421
0.00422367
0.00422378
0.00396639
0.00396794
0.00397873
0.00399711
0.00402465
0.00405446
0.00408199
0.00410854
0.00413575
0.0041589
0.00417668
0.00419203
0.004204
0.00421304
0.00422025
0.00422524
0.00422874
0.00423142
0.00423301
0.00423376
0.00423422
0.00423439
0.00423421
0.00423378
0.00423323
0.00423258
0.00423175
0.00423072
0.00422957
0.00422832
0.00422694
0.00422546
0.00422396
0.00422248
0.00422102
0.00421962
0.00421832
0.0042171
0.00421603
0.00421518
0.00421445
0.00421438
0.00395199
0.00395941
0.00397249
0.00399119
0.00401295
0.00403988
0.00407155
0.00410208
0.00412616
0.00414794
0.00416771
0.00418353
0.00419541
0.00420496
0.00421236
0.00421743
0.00422124
0.00422403
0.00422558
0.00422646
0.00422707
0.00422729
0.00422716
0.00422679
0.00422627
0.00422562
0.00422479
0.00422378
0.00422264
0.00422137
0.00421995
0.00421842
0.00421683
0.00421522
0.00421359
0.00421199
0.00421045
0.00420896
0.00420762
0.00420654
0.00420567
0.00420537
0.00394227
0.00394805
0.00395983
0.00397936
0.00400472
0.00403018
0.00405934
0.00408978
0.00411635
0.00413804
0.0041575
0.00417351
0.00418589
0.00419576
0.0042032
0.00420862
0.00421264
0.00421542
0.00421717
0.00421824
0.00421881
0.00421904
0.00421906
0.00421885
0.00421846
0.00421787
0.00421709
0.00421617
0.0042151
0.00421386
0.00421249
0.00421101
0.00420946
0.00420785
0.00420617
0.00420446
0.00420277
0.00420112
0.0041996
0.00419836
0.00419738
0.00419688
0.00393426
0.00393684
0.00394834
0.00396539
0.00399059
0.00402098
0.00405082
0.00407698
0.00410313
0.00412768
0.00414708
0.00416267
0.00417568
0.00418575
0.00419334
0.00419913
0.00420318
0.00420601
0.00420802
0.00420923
0.00420983
0.00421013
0.00421024
0.00421009
0.00420979
0.0042093
0.00420865
0.00420785
0.00420688
0.00420578
0.00420455
0.00420321
0.00420176
0.00420022
0.00419858
0.00419689
0.00419518
0.0041935
0.00419194
0.00419062
0.00418958
0.00418894
0.00391937
0.0039255
0.00393803
0.00395535
0.00397799
0.00400666
0.00403743
0.004066
0.00409146
0.00411503
0.00413524
0.00415131
0.00416447
0.00417478
0.00418273
0.0041887
0.00419284
0.00419586
0.00419803
0.00419937
0.00420016
0.00420062
0.00420079
0.00420072
0.0042005
0.0042001
0.00419957
0.00419888
0.00419804
0.00419708
0.00419602
0.00419485
0.00419358
0.0041922
0.00419072
0.00418916
0.00418757
0.00418601
0.00418453
0.00418325
0.00418223
0.00418156
0.00390863
0.0039121
0.00392273
0.00394325
0.00396831
0.00399584
0.00402223
0.00405136
0.00407978
0.00410325
0.00412248
0.00413919
0.00415278
0.00416319
0.00417144
0.00417766
0.00418205
0.00418532
0.00418762
0.00418902
0.0041899
0.00419043
0.00419068
0.00419074
0.00419063
0.00419038
0.00418996
0.00418939
0.00418869
0.0041879
0.00418701
0.00418602
0.00418494
0.00418377
0.00418253
0.00418121
0.00417985
0.0041785
0.00417723
0.0041761
0.00417522
0.0041746
0.00389697
0.00389996
0.00391181
0.00392801
0.00395234
0.00398228
0.00401181
0.00403807
0.0040649
0.00409005
0.00411013
0.00412662
0.00414047
0.00415132
0.00415984
0.00416611
0.00417074
0.00417424
0.0041766
0.00417816
0.00417923
0.00417986
0.00418014
0.00418028
0.0041803
0.00418018
0.00417987
0.00417942
0.00417889
0.00417827
0.00417757
0.00417679
0.00417594
0.00417503
0.00417405
0.00417302
0.00417196
0.0041709
0.00416989
0.00416903
0.00416838
0.00416788
0.00388047
0.00388787
0.00390045
0.00391734
0.00393828
0.00396564
0.00399723
0.00402684
0.0040516
0.00407539
0.00409684
0.00411393
0.00412768
0.00413903
0.0041478
0.00415418
0.00415923
0.00416283
0.00416517
0.00416698
0.00416824
0.0041689
0.00416926
0.00416955
0.00416968
0.00416962
0.00416941
0.00416912
0.00416876
0.00416831
0.0041678
0.00416724
0.00416663
0.00416598
0.00416528
0.00416456
0.00416383
0.00416311
0.00416243
0.00416187
0.00416147
0.00416115
0.00386855
0.00387355
0.00388458
0.00390388
0.00392778
0.00395269
0.00398093
0.00401157
0.0040391
0.00406226
0.00408276
0.00410079
0.00411491
0.00412653
0.00413533
0.00414216
0.00414753
0.00415102
0.00415364
0.00415574
0.00415698
0.00415766
0.00415824
0.00415868
0.00415881
0.0041588
0.00415873
0.00415861
0.00415838
0.00415809
0.00415778
0.00415745
0.00415707
0.00415666
0.00415624
0.00415583
0.00415544
0.00415507
0.00415471
0.00415444
0.00415429
0.00415414
0.00385826
0.00385991
0.00386938
0.00388781
0.00391365
0.00394169
0.00396774
0.00399552
0.00402435
0.00404937
0.00406948
0.00408727
0.00410214
0.00411389
0.00412291
0.00413025
0.00413553
0.00413919
0.00414222
0.00414429
0.00414546
0.0041464
0.00414718
0.0041476
0.00414775
0.00414792
0.00414804
0.00414799
0.00414786
0.00414772
0.0041476
0.00414745
0.00414728
0.00414711
0.00414696
0.00414683
0.00414674
0.00414668
0.00414662
0.00414661
0.00414665
0.00414665
0.00384384
0.00384732
0.00385887
0.00387409
0.00389726
0.00392683
0.00395617
0.00398245
0.00400945
0.00403529
0.00405668
0.00407418
0.00408934
0.00410129
0.00411075
0.0041183
0.00412342
0.00412759
0.00413089
0.00413272
0.00413396
0.00413517
0.00413602
0.00413639
0.00413665
0.00413702
0.00413725
0.00413728
0.00413728
0.00413731
0.00413731
0.0041373
0.00413731
0.00413736
0.00413745
0.00413755
0.00413768
0.00413784
0.00413803
0.00413824
0.00413843
0.00413853
0.00382734
0.00383447
0.00384686
0.00386405
0.00388474
0.00390978
0.00393993
0.00397058
0.00399703
0.00402101
0.00404273
0.00406124
0.00407664
0.00408866
0.00409855
0.0041062
0.00411152
0.00411604
0.00411934
0.00412125
0.00412279
0.00412407
0.00412483
0.00412528
0.00412574
0.00412614
0.00412634
0.00412647
0.00412665
0.00412679
0.0041269
0.00412702
0.00412718
0.0041274
0.00412768
0.00412797
0.00412826
0.00412857
0.00412892
0.00412927
0.00412957
0.00412974
0.00381435
0.00382201
0.00383436
0.00385131
0.00387192
0.00389579
0.00392637
0.00395825
0.00398424
0.00400739
0.00402982
0.00404897
0.0040642
0.00407663
0.00408659
0.00409408
0.00409999
0.00410455
0.00410756
0.00410977
0.0041116
0.00411286
0.00411362
0.00411423
0.00411479
0.00411517
0.00411539
0.00411565
0.00411594
0.00411618
0.00411637
0.00411659
0.00411688
0.00411722
0.00411761
0.00411802
0.00411842
0.00411884
0.00411927
0.00411969
0.00412003
0.00412026
0.00380666
0.00380889
0.00381938
0.00383527
0.00385902
0.00388688
0.00391526
0.0039421
0.00397003
0.0039959
0.00401753
0.00403607
0.00405186
0.00406468
0.00407453
0.00408248
0.00408846
0.00409272
0.00409623
0.00409881
0.00410035
0.00410151
0.00410258
0.0041034
0.00410384
0.00410415
0.00410452
0.00410486
0.00410513
0.00410541
0.00410572
0.00410605
0.0041064
0.00410678
0.00410721
0.00410769
0.00410817
0.00410865
0.00410911
0.00410952
0.00410987
0.00411011
0.00379324
0.00379655
0.00380818
0.00382245
0.00384466
0.00387397
0.00390328
0.00392943
0.00395643
0.00398284
0.00400518
0.0040237
0.00403966
0.0040524
0.0040624
0.00407107
0.00407709
0.00408099
0.00408486
0.00408779
0.0040891
0.00409018
0.00409147
0.00409244
0.00409283
0.00409313
0.00409363
0.00409402
0.00409425
0.00409452
0.00409491
0.00409532
0.0040957
0.00409608
0.00409649
0.00409698
0.0040975
0.004098
0.00409844
0.00409882
0.00409914
0.00409938
0.00377853
0.00378544
0.00379717
0.00381198
0.00383199
0.00385922
0.00388961
0.00391768
0.00394386
0.00396973
0.00399232
0.00401126
0.00402759
0.0040403
0.00405079
0.00405954
0.00406525
0.00406965
0.00407373
0.00407639
0.00407772
0.00407912
0.00408045
0.00408127
0.00408166
0.00408211
0.00408264
0.00408298
0.00408321
0.00408351
0.00408389
0.0040843
0.00408469
0.00408506
0.00408545
0.0040859
0.00408641
0.00408689
0.00408729
0.00408762
0.00408789
0.00408811
0.0037672
0.00377303
0.00378491
0.0037992
0.00381935
0.00384658
0.00387697
0.0039053
0.00393061
0.00395657
0.00397981
0.00399881
0.00401515
0.00402837
0.00403923
0.00404765
0.0040533
0.00405841
0.00406262
0.00406492
0.00406635
0.00406797
0.00406931
0.00407001
0.00407046
0.004071
0.00407146
0.00407174
0.004072
0.00407231
0.00407266
0.00407302
0.00407339
0.00407373
0.00407407
0.00407447
0.00407492
0.00407535
0.0040757
0.00407598
0.00407618
0.00407636
0.00375507
0.00376113
0.00377308
0.00378656
0.00380658
0.0038345
0.0038644
0.00389133
0.00391788
0.00394412
0.00396689
0.00398618
0.00400296
0.00401608
0.00402722
0.00403576
0.00404159
0.00404705
0.00405126
0.00405333
0.00405507
0.00405686
0.00405805
0.00405861
0.00405915
0.00405972
0.0040601
0.00406034
0.00406062
0.00406091
0.0040612
0.00406149
0.00406178
0.00406206
0.00406236
0.00406271
0.00406306
0.00406339
0.00406369
0.00406391
0.00406403
0.00406418
0.00374222
0.00374899
0.00376023
0.00377627
0.00379547
0.00381921
0.00384922
0.0038799
0.00390714
0.00392993
0.00395296
0.00397385
0.00399005
0.00400337
0.00401507
0.00402344
0.00402976
0.00403527
0.004039
0.00404155
0.00404386
0.00404554
0.00404645
0.00404711
0.00404778
0.00404829
0.00404856
0.00404876
0.004049
0.00404926
0.00404951
0.00404974
0.00404993
0.00405012
0.00405036
0.00405062
0.00405087
0.00405109
0.0040513
0.00405145
0.00405152
0.00405163
0.00373381
0.00373533
0.00374389
0.00376199
0.00378438
0.00380846
0.00383535
0.00386489
0.00389331
0.00391721
0.00393994
0.00396085
0.00397713
0.00399098
0.00400257
0.00401111
0.00401806
0.00402341
0.00402711
0.00403002
0.00403224
0.00403368
0.00403468
0.00403552
0.00403615
0.00403653
0.00403678
0.00403698
0.00403717
0.00403736
0.00403754
0.00403769
0.0040378
0.00403793
0.00403808
0.00403823
0.00403837
0.0040385
0.00403862
0.00403869
0.0040387
0.00403879
0.00371801
0.00372403
0.0037345
0.00374929
0.00376887
0.00379452
0.00382396
0.00385266
0.00387774
0.00390352
0.00392782
0.00394739
0.00396404
0.00397827
0.00398957
0.00399875
0.0040059
0.00401097
0.00401489
0.004018
0.00402016
0.00402165
0.00402281
0.00402369
0.00402427
0.00402461
0.00402481
0.00402494
0.00402508
0.00402521
0.0040253
0.00402537
0.00402542
0.00402546
0.0040255
0.00402555
0.0040256
0.00402565
0.00402568
0.00402569
0.00402566
0.00402572
0.00370473
0.00371032
0.0037206
0.00373676
0.0037582
0.00378067
0.00380904
0.00383872
0.00386477
0.00388999
0.00391401
0.00393406
0.00395097
0.00396523
0.00397692
0.0039861
0.00399321
0.00399877
0.00400281
0.00400562
0.00400784
0.00400959
0.00401076
0.00401145
0.00401194
0.00401232
0.00401255
0.00401265
0.00401271
0.00401277
0.0040128
0.00401281
0.00401281
0.00401277
0.00401271
0.00401265
0.00401262
0.00401258
0.00401253
0.00401248
0.00401243
0.00401246
0.00369449
0.0036974
0.00370775
0.00372111
0.00374192
0.00376962
0.00379796
0.00382352
0.00385018
0.00387688
0.00390022
0.00392048
0.00393771
0.00395212
0.00396389
0.00397302
0.00398024
0.0039859
0.00399001
0.00399308
0.00399549
0.00399718
0.0039982
0.00399887
0.00399943
0.00399985
0.00400001
0.00400005
0.00400008
0.00400011
0.00400008
0.00400003
0.00399994
0.00399983
0.00399971
0.00399958
0.00399947
0.00399935
0.00399923
0.00399912
0.00399901
0.00399902
0.00367869
0.00368498
0.00369572
0.00370907
0.00372748
0.00375265
0.00378314
0.00381226
0.00383628
0.00386148
0.0038864
0.00390688
0.00392388
0.00393888
0.00395036
0.00395938
0.00396716
0.00397302
0.00397719
0.00398034
0.00398257
0.00398409
0.00398524
0.00398611
0.00398669
0.003987
0.00398713
0.00398718
0.00398718
0.00398714
0.00398707
0.00398699
0.00398687
0.00398671
0.00398652
0.00398633
0.00398615
0.00398597
0.0039858
0.00398563
0.00398546
0.00398544
0.0036665
0.00366981
0.00367915
0.00369634
0.00371792
0.00373997
0.003766
0.00379577
0.0038242
0.00384875
0.00387177
0.00389227
0.00391012
0.00392536
0.00393672
0.00394642
0.00395427
0.00395907
0.00396306
0.00396702
0.00396963
0.00397074
0.00397191
0.00397301
0.0039736
0.00397378
0.00397397
0.0039741
0.00397404
0.00397392
0.00397381
0.00397371
0.00397357
0.00397338
0.00397314
0.0039729
0.00397267
0.00397245
0.00397223
0.00397202
0.00397182
0.00397177
0.00365394
0.00365706
0.00366732
0.00368026
0.00370076
0.00372728
0.00375503
0.0037805
0.00380735
0.00383459
0.00385819
0.00387783
0.00389591
0.00391082
0.00392214
0.00393264
0.00394071
0.00394515
0.00394934
0.00395352
0.00395611
0.00395722
0.00395851
0.0039596
0.00396004
0.0039602
0.00396044
0.00396059
0.00396049
0.00396037
0.0039603
0.0039602
0.00396004
0.0039598
0.00395954
0.00395928
0.00395903
0.0039588
0.00395856
0.00395834
0.00395811
0.00395804
0.00363776
0.0036441
0.00365458
0.00366766
0.00368612
0.00371184
0.00374019
0.00376668
0.00379197
0.00381891
0.00384368
0.00386336
0.00388073
0.00389597
0.00390805
0.00391824
0.00392573
0.00393093
0.00393585
0.00393965
0.00394169
0.00394324
0.00394472
0.00394571
0.00394613
0.0039464
0.00394667
0.00394677
0.00394669
0.00394658
0.0039465
0.00394638
0.0039462
0.00394597
0.00394574
0.00394549
0.00394524
0.003945
0.00394478
0.00394455
0.00394431
0.00394425
0.00362772
0.00362842
0.00363607
0.00365247
0.00367476
0.00369935
0.00372234
0.00374955
0.00377868
0.00380433
0.00382715
0.00384803
0.00386589
0.00388104
0.00389348
0.00390327
0.00391086
0.00391679
0.00392166
0.00392516
0.00392738
0.00392913
0.00393056
0.00393147
0.00393187
0.00393217
0.00393248
0.00393262
0.00393256
0.00393248
0.00393242
0.0039323
0.00393211
0.00393191
0.00393173
0.00393152
0.00393129
0.00393108
0.00393087
0.00393065
0.00393041
0.00393036
0.0036131
0.00361398
0.00362151
0.00363797
0.00366024
0.00368427
0.00370715
0.00373362
0.00376343
0.00378992
0.00381107
0.00383176
0.00385059
0.00386583
0.00387808
0.0038878
0.00389614
0.00390213
0.00390636
0.00391011
0.00391284
0.00391452
0.00391586
0.00391687
0.00391744
0.00391778
0.00391808
0.00391821
0.00391817
0.00391813
0.00391809
0.00391797
0.00391779
0.00391765
0.00391753
0.00391736
0.00391717
0.00391699
0.00391682
0.00391661
0.00391638
0.00391635
0.00359473
0.00360074
0.00361137
0.00362338
0.0036409
0.00366612
0.00369395
0.00372021
0.00374649
0.00377209
0.00379534
0.00381658
0.00383476
0.00385018
0.00386242
0.00387258
0.00388121
0.00388682
0.00389115
0.00389524
0.00389796
0.00389959
0.00390104
0.00390218
0.00390278
0.00390312
0.00390339
0.00390352
0.00390352
0.00390351
0.00390349
0.00390341
0.00390331
0.00390321
0.00390311
0.00390298
0.00390285
0.00390272
0.00390259
0.00390241
0.00390219
0.0039022
0.00357913
0.00358562
0.00359556
0.00360972
0.00362716
0.00364882
0.00367726
0.00370557
0.00373054
0.00375461
0.00377961
0.00380142
0.00381865
0.0038341
0.0038462
0.00385699
0.00386569
0.00387082
0.00387563
0.00388011
0.00388267
0.00388413
0.00388584
0.00388716
0.0038877
0.003888
0.00388836
0.0038886
0.00388866
0.00388867
0.00388866
0.00388864
0.00388863
0.00388859
0.0038885
0.0038884
0.00388833
0.00388827
0.00388819
0.00388804
0.00388782
0.00388789
0.00356491
0.00356943
0.00357916
0.00359429
0.00361389
0.0036333
0.00365809
0.00368825
0.0037163
0.0037391
0.00376224
0.00378363
0.00380229
0.00381796
0.00382995
0.00384122
0.00384968
0.00385465
0.0038601
0.0038647
0.00386697
0.00386833
0.00387036
0.00387194
0.00387239
0.00387256
0.00387308
0.00387349
0.00387355
0.00387356
0.00387361
0.00387367
0.00387371
0.0038737
0.00387366
0.00387362
0.00387361
0.0038736
0.00387356
0.00387345
0.00387321
0.00387336
0.00355238
0.00355421
0.00356345
0.00357464
0.00359491
0.00362052
0.00364557
0.00366916
0.00369646
0.00372313
0.00374621
0.00376679
0.00378567
0.00380135
0.00381361
0.00382483
0.00383328
0.00383902
0.00384467
0.0038488
0.00385074
0.00385292
0.00385505
0.00385619
0.0038564