/*--------------------------------*- C++ -*----------------------------------*\
| =========                 |                                                 |
| \\      /  F ield         | OpenFOAM: The Open Source CFD Toolbox           |
|  \\    /   O peration     | Version:  2406                                  |
|   \\  /    A nd           | Website:  www.openfoam.com                      |
|    \\/     M anipulation  |                                                 |
\*---------------------------------------------------------------------------*/
FoamFile
{
    version     2.0;
    format      ascii;
    arch        "LSB;label=32;scalar=64";
    class       volScalarField;
    location    "0.109";
    object      S_sat;
}
// * * * * * * * * * * * * * * * * * * * * * * * * * * * * * * * * * * * * * //

dimensions      [0 0 0 0 0 0 0];

internalField   nonuniform List<scalar> 
8988
(
1.63809
1.67704
1.7316
1.7688
1.78856
1.79964
1.8063
1.81041
1.81289
1.81435
1.81534
1.81617
1.81678
1.81711
1.8171
1.81702
1.81693
1.81682
1.81665
1.81643
1.81616
1.81582
1.81543
1.815
1.81456
1.81408
1.81354
1.81295
1.81232
1.81164
1.81089
1.81008
1.80923
1.80834
1.80739
1.80639
1.80538
1.80436
1.8034
1.80263
1.80211
1.8013
1.42563
1.47103
1.55659
1.64923
1.71332
1.7545
1.78107
1.7941
1.7997
1.80419
1.80805
1.80943
1.80998
1.81077
1.81155
1.81201
1.8124
1.81271
1.81295
1.81316
1.8133
1.81336
1.81337
1.81334
1.81328
1.81316
1.81294
1.81269
1.8125
1.81231
1.81195
1.81154
1.81121
1.81094
1.81066
1.81037
1.81011
1.80989
1.80979
1.80982
1.81001
1.80984
1.28387
1.32494
1.41124
1.52782
1.62927
1.69393
1.73655
1.76765
1.78371
1.78993
1.79482
1.80014
1.80238
1.80358
1.80491
1.80601
1.80676
1.80729
1.80771
1.80809
1.80845
1.80878
1.80912
1.80948
1.80987
1.81021
1.81048
1.8107
1.81096
1.81124
1.81148
1.81169
1.81198
1.81239
1.81291
1.81349
1.81418
1.81497
1.8158
1.81656
1.81728
1.81747
1.17482
1.21267
1.2957
1.41732
1.53733
1.62498
1.68597
1.7303
1.75836
1.7703
1.7779
1.78612
1.7912
1.79355
1.79559
1.79758
1.79891
1.7999
1.80068
1.80138
1.80208
1.80285
1.80369
1.80458
1.80549
1.80642
1.80739
1.80849
1.80975
1.81105
1.81235
1.8137
1.81512
1.81663
1.81819
1.81984
1.82157
1.82333
1.82497
1.82639
1.82751
1.8281
1.09457
1.12657
1.20389
1.31847
1.44582
1.55643
1.63348
1.68625
1.72471
1.74862
1.76214
1.77176
1.77863
1.78289
1.786
1.78843
1.79034
1.79179
1.79305
1.79418
1.79532
1.79657
1.79794
1.79938
1.80085
1.80245
1.80431
1.80642
1.80865
1.81095
1.8134
1.81603
1.81881
1.8217
1.82463
1.82751
1.83025
1.83279
1.83506
1.83701
1.83845
1.83959
1.02437
1.0551
1.12931
1.23928
1.36445
1.48428
1.5806
1.64617
1.69011
1.72281
1.74506
1.75785
1.76637
1.7727
1.77678
1.77987
1.78237
1.78431
1.78607
1.78769
1.78929
1.79107
1.79313
1.79532
1.79759
1.80011
1.80303
1.8063
1.80972
1.81333
1.81711
1.82102
1.82498
1.82894
1.83286
1.83663
1.84001
1.84305
1.84572
1.848
1.84977
1.85135
0.983828
0.993254
1.0631
1.17181
1.29902
1.41985
1.52423
1.60615
1.66159
1.69944
1.72739
1.74574
1.75671
1.76449
1.76989
1.77403
1.77718
1.7795
1.78165
1.78367
1.78562
1.78775
1.79024
1.79295
1.79577
1.79891
1.80253
1.80654
1.81082
1.81534
1.82011
1.82507
1.83011
1.83517
1.84011
1.84483
1.84913
1.85291
1.85614
1.85884
1.86095
1.863
0.988886
0.982865
1.0033
1.10885
1.23921
1.36831
1.47697
1.5654
1.63389
1.68085
1.71227
1.73467
1.7487
1.75878
1.76588
1.77074
1.77461
1.7777
1.78026
1.78253
1.78464
1.78691
1.78955
1.79245
1.79555
1.79901
1.80295
1.80729
1.81198
1.81703
1.82245
1.82815
1.83404
1.84005
1.84603
1.85182
1.85717
1.8619
1.86595
1.86932
1.87184
1.87371
0.989658
0.989103
0.983443
1.05576
1.18193
1.31739
1.43836
1.53321
1.60712
1.66371
1.70311
1.72851
1.74626
1.75834
1.76628
1.7717
1.77618
1.77975
1.78247
1.78487
1.78708
1.78919
1.79145
1.79413
1.79731
1.80091
1.80488
1.80921
1.81395
1.81914
1.82476
1.83074
1.83706
1.84367
1.85046
1.85724
1.86375
1.86965
1.87472
1.87878
1.88164
1.88331
0.989087
0.989154
0.989953
1.00984
1.13814
1.2709
1.39585
1.50376
1.58792
1.64986
1.69516
1.72646
1.74771
1.76188
1.77106
1.77806
1.78317
1.78704
1.79003
1.79227
1.79417
1.79591
1.7977
1.79987
1.80249
1.8055
1.80883
1.81258
1.81685
1.82171
1.82711
1.83301
1.83941
1.84628
1.85354
1.86099
1.86833
1.87518
1.88119
1.88605
1.8895
1.89151
0.989663
0.989387
0.989778
0.983458
1.09274
1.2331
1.36447
1.47486
1.56738
1.63944
1.69057
1.72614
1.75138
1.76877
1.77984
1.78785
1.79361
1.79792
1.80122
1.80361
1.80548
1.80693
1.80831
1.80992
1.81176
1.81376
1.816
1.81867
1.82194
1.82589
1.83055
1.8359
1.84195
1.84863
1.85583
1.86333
1.87084
1.87804
1.88463
1.89019
1.89434
1.89687
0.988967
0.989006
0.989493
0.982144
1.05494
1.1932
1.33225
1.45399
1.55137
1.62893
1.6879
1.72868
1.75737
1.77759
1.79048
1.79961
1.8064
1.81097
1.81461
1.81749
1.81946
1.82086
1.82195
1.82317
1.8245
1.8258
1.82718
1.82883
1.83091
1.83351
1.83678
1.84081
1.84567
1.85133
1.85766
1.86445
1.87147
1.8785
1.88512
1.89087
1.89535
1.8983
0.989207
0.989322
0.990346
0.990723
1.02521
1.16265
1.30116
1.43065
1.53861
1.62185
1.686
1.73215
1.7649
1.78832
1.80271
1.81294
1.82087
1.82606
1.82983
1.833
1.83524
1.83661
1.83757
1.83846
1.83939
1.84036
1.84138
1.84252
1.84382
1.84533
1.84714
1.84936
1.85213
1.85563
1.85997
1.86514
1.87095
1.87714
1.88334
1.88894
1.89339
1.89619
0.99007
0.989159
0.990155
0.990985
0.993954
1.13666
1.27711
1.40881
1.52423
1.61657
1.68618
1.73665
1.77343
1.79994
1.81629
1.82792
1.83684
1.84275
1.84698
1.85017
1.85249
1.85402
1.8549
1.85552
1.85607
1.85668
1.85738
1.85814
1.85899
1.85989
1.86079
1.86164
1.8625
1.86349
1.8649
1.86712
1.87042
1.87463
1.87942
1.88411
1.88803
1.89067
0.990159
0.989342
0.991151
0.992113
0.982633
1.10771
1.25587
1.39101
1.50999
1.61
1.68672
1.74172
1.7826
1.81162
1.83038
1.84393
1.8538
1.86029
1.86509
1.8687
1.871
1.87256
1.87354
1.87399
1.87427
1.87453
1.87473
1.8749
1.87509
1.87525
1.87529
1.87514
1.87467
1.87391
1.87297
1.87222
1.87205
1.87281
1.87452
1.87707
1.87967
1.88167
0.990153
0.989558
0.990863
0.991572
0.991578
1.0794
1.23065
1.37375
1.49747
1.60235
1.68512
1.74639
1.79215
1.82323
1.84471
1.86087
1.87162
1.87885
1.88421
1.88813
1.89075
1.89223
1.89296
1.89325
1.89331
1.89314
1.89269
1.89213
1.89157
1.89091
1.89003
1.88885
1.88731
1.88531
1.88277
1.87975
1.87647
1.87349
1.87144
1.87016
1.86987
1.87018
0.991095
0.990034
0.990728
0.991589
0.991881
1.05761
1.20652
1.35309
1.48493
1.59502
1.68218
1.75036
1.80081
1.83505
1.86039
1.87837
1.88984
1.89816
1.90411
1.90801
1.91063
1.91208
1.91258
1.91264
1.91238
1.91171
1.91064
1.90934
1.9079
1.9063
1.90443
1.90222
1.89962
1.89648
1.89266
1.88805
1.88265
1.87672
1.87093
1.86587
1.86207
1.8599
0.992006
0.990509
0.991562
0.991774
0.992691
1.03442
1.18611
1.33262
1.4687
1.58593
1.67932
1.75279
1.80738
1.84637
1.87517
1.89465
1.90734
1.91699
1.92373
1.92768
1.93016
1.93151
1.93193
1.93176
1.93105
1.92983
1.92816
1.92613
1.92384
1.92128
1.91839
1.9151
1.91135
1.90703
1.90198
1.89607
1.88925
1.88159
1.87344
1.86581
1.85977
1.85563
0.991977
0.990965
0.99159
0.99237
0.992491
1.01371
1.16373
1.31447
1.45385
1.57548
1.67521
1.75369
1.8132
1.85611
1.88754
1.90963
1.92399
1.93444
1.94188
1.94618
1.94852
1.94962
1.94995
1.94961
1.94849
1.94676
1.94455
1.94189
1.93879
1.9353
1.93139
1.92701
1.92212
1.91662
1.91038
1.90338
1.89561
1.8872
1.8784
1.86966
1.86247
1.85722
0.991943
0.991654
0.992327
0.993296
0.992843
0.998479
1.14378
1.29566
1.43923
1.56434
1.66907
1.75278
1.81718
1.86413
1.89809
1.92252
1.93909
1.95054
1.95835
1.96301
1.96536
1.96626
1.96643
1.96596
1.96461
1.96244
1.95961
1.95623
1.95236
1.94801
1.94319
1.93788
1.93201
1.92554
1.91842
1.91069
1.90245
1.89386
1.88525
1.87714
1.8708
1.86533
0.991699
0.991761
0.991781
0.992821
0.992938
0.98369
1.12797
1.2774
1.42299
1.55248
1.6615
1.74985
1.8184
1.86963
1.90663
1.93291
1.95165
1.96439
1.97248
1.97746
1.98011
1.98109
1.98116
1.98048
1.97895
1.97646
1.97303
1.96894
1.9644
1.95943
1.95397
1.94797
1.94143
1.93436
1.92679
1.91882
1.9106
1.90244
1.89484
1.8884
1.88445
1.88007
0.991527
0.991856
0.991617
0.993355
0.992971
0.980701
1.10859
1.26131
1.40819
1.53864
1.65201
1.74528
1.81754
1.87263
1.91287
1.9413
1.96187
1.97592
1.98463
1.98984
1.99259
1.99363
1.99372
1.993
1.9914
1.9887
1.98492
1.98042
1.97548
1.97009
1.96419
1.95784
1.95106
1.94385
1.9363
1.92861
1.92107
1.91413
1.90832
1.9039
1.90205
1.89888
0.991748
0.991673
0.991893
0.99207
0.993288
0.993407
1.09303
1.24291
1.39089
1.52495
1.64175
1.73843
1.81437
1.87293
1.91599
1.94676
1.96907
1.98436
1.9939
1.99952
2.00253
2.00377
2.0041
2.00361
2.00201
1.99921
1.99538
1.99089
1.98594
1.98047
1.97449
1.96816
1.96156
1.95476
1.94791
1.94126
1.93514
1.92994
1.92604
1.92328
1.92239
1.91995
0.99158
0.991977
0.991651
0.99212
0.993542
0.99323
1.07617
1.22391
1.37313
1.51062
1.62944
1.7292
1.8094
1.8706
1.91632
1.94991
1.97374
1.98999
2.00047
2.00663
2.00984
2.01136
2.0121
2.01218
2.01113
2.00868
2.00511
2.00083
1.99607
1.99091
1.98539
1.97967
1.9739
1.96822
1.96278
1.95775
1.95332
1.94967
1.94702
1.94521
1.94472
1.94257
0.991713
0.991659
0.99167
0.991852
0.99348
0.9936
1.05754
1.2065
1.35684
1.49451
1.61527
1.71863
1.802
1.86554
1.91373
1.95014
1.9759
1.99329
2.00477
2.01186
2.01584
2.0179
2.01886
2.01921
2.01878
2.01716
2.01435
2.0107
2.00658
2.00223
1.99778
1.99336
1.98906
1.98496
1.98112
1.97761
1.97451
1.97191
1.96997
1.96868
1.96852
1.96659
0.991541
0.991773
0.991821
0.991571
0.993509
0.993529
1.04257
1.1902
1.33816
1.47794
1.6017
1.70686
1.79273
1.85905
1.90988
1.9481
1.97536
1.99429
2.00713
2.01532
2.02028
2.0232
2.02482
2.02559
2.02585
2.02541
2.0239
2.02141
2.01845
2.01538
2.01236
2.00946
2.00672
2.00412
2.00168
1.99946
1.99744
1.99566
1.99428
1.9934
1.99348
1.99182
0.991586
0.99159
0.991563
0.99172
0.993741
0.993538
1.0252
1.17187
1.31794
1.45913
1.58528
1.69289
1.78147
1.85103
1.90467
1.9449
1.97407
1.99475
2.00885
2.0181
2.02417
2.0282
2.03081
2.03249
2.03362
2.03426
2.0342
2.03326
2.0317
2.03007
2.02859
2.02723
2.02596
2.02473
2.02356
2.02249
2.02148
2.02048
2.01967
2.01915
2.01937
2.01797
0.991739
0.991938
0.991947
0.991678
0.991725
0.993649
1.00461
1.15114
1.30032
1.44089
1.56851
1.67913
1.77008
1.84277
1.89925
1.9418
1.97319
1.99562
2.01111
2.02169
2.02903
2.03415
2.0378
2.04057
2.04284
2.04458
2.04564
2.04601
2.04598
2.04581
2.04569
2.04572
2.04582
2.04596
2.04607
2.04614
2.04612
2.04595
2.04573
2.04559
2.04596
2.04479
0.991828
0.991532
0.991696
0.991668
0.992286
0.993751
0.991317
1.1346
1.28166
1.42516
1.55478
1.66701
1.76112
1.83713
1.89637
1.9413
1.97463
1.99871
2.01569
2.02769
2.03627
2.04237
2.04678
2.05042
2.05364
2.05629
2.05838
2.05995
2.06117
2.06226
2.06336
2.06453
2.06584
2.06724
2.06865
2.06989
2.07086
2.07152
2.07195
2.07237
2.07304
2.07204
0.992112
0.991672
0.991766
0.991606
0.992062
0.993742
0.980393
1.12014
1.26953
1.4123
1.54332
1.65881
1.75587
1.83466
1.89649
1.94374
1.97909
2.00485
2.0232
2.03622
2.04554
2.05232
2.05773
2.06238
2.06627
2.06965
2.07253
2.07499
2.07717
2.07925
2.08136
2.08359
2.08595
2.08842
2.09094
2.09328
2.09527
2.09685
2.09811
2.09918
2.10025
2.09952
0.992032
0.991887
0.992359
0.992024
0.991927
0.993945
0.979882
1.11154
1.26047
1.40256
1.53657
1.65492
1.75462
1.83599
1.89987
1.94936
1.98691
2.01412
2.03362
2.04773
2.05774
2.06516
2.07135
2.07656
2.0809
2.08465
2.08799
2.09109
2.09397
2.09675
2.09964
2.10277
2.10608
2.10948
2.11291
2.11621
2.11917
2.12176
2.12395
2.1257
2.12726
2.12693
0.991616
0.992041
0.991965
0.991699
0.991849
0.994325
0.97938
1.10373
1.25203
1.39605
1.53352
1.65381
1.75604
1.84057
1.90678
1.95869
1.99817
2.02647
2.04714
2.06235
2.07284
2.08084
2.08775
2.09345
2.09809
2.10198
2.10551
2.1089
2.11212
2.11526
2.11861
2.12229
2.12625
2.13036
2.13454
2.13863
2.14247
2.14603
2.14917
2.15166
2.15378
2.15401
0.992174
0.991611
0.992035
0.99191
0.991549
0.994094
0.97898
1.09364
1.24533
1.3953
1.53274
1.65492
1.76115
1.84819
1.9171
1.97164
2.01261
2.04231
2.06445
2.08037
2.09119
2.09953
2.10676
2.11277
2.11752
2.12152
2.12516
2.12861
2.1319
2.13519
2.13873
2.1426
2.1468
2.15129
2.15599
2.1607
2.16529
2.1697
2.17368
2.17687
2.17945
2.18034
0.992165
0.991841
0.992183
0.991916
0.991655
0.994459
0.978562
1.0922
1.24213
1.39358
1.53443
1.66
1.76895
1.85874
1.93084
1.98739
2.03003
2.0616
2.08468
2.10111
2.11284
2.12167
2.1289
2.13498
2.13965
2.14363
2.14718
2.1505
2.15371
2.15697
2.16045
2.16421
2.16831
2.17283
2.17771
2.18278
2.18786
2.19282
2.19736
2.20109
2.20402
2.20554
0.991986
0.991978
0.991672
0.991738
0.99157
0.991565
0.978028
1.09048
1.24416
1.39386
1.53668
1.6669
1.77836
1.87118
1.94636
2.00483
2.04972
2.08314
2.10699
2.12413
2.13675
2.14608
2.15349
2.15969
2.16446
2.16839
2.17171
2.17477
2.17775
2.18073
2.18386
2.18727
2.19109
2.19541
2.20019
2.20528
2.21047
2.21557
2.22029
2.22431
2.22747
2.2294
0.992329
0.99171
0.991613
0.991551
0.991992
0.991815
0.977711
1.0882
1.24319
1.39695
1.54187
1.67448
1.78937
1.88553
1.96333
2.02439
2.07165
2.10667
2.13175
2.14992
2.16309
2.17265
2.1801
2.18637
2.1914
2.19534
2.19848
2.20129
2.20399
2.20664
2.20935
2.21229
2.21564
2.21949
2.22383
2.22854
2.23342
2.23825
2.24279
2.24673
2.24984
2.25192
0.992198
0.991592
0.99209
0.991632
0.992104
0.991846
0.977358
1.09049
1.24268
1.3973
1.54737
1.68276
1.80055
1.90051
1.9814
2.04515
2.09465
2.13127
2.15786
2.17735
2.19138
2.20145
2.20909
2.2153
2.22039
2.22425
2.22723
2.22981
2.23217
2.23441
2.23667
2.23913
2.24192
2.24513
2.24878
2.25281
2.25704
2.26126
2.26524
2.26872
2.27145
2.27339
0.992611
0.992016
0.992077
0.991597
0.992209
0.991761
0.97685
1.08832
1.24489
1.40024
1.55102
1.69065
1.81238
1.91559
1.99976
2.06699
2.11896
2.15746
2.18591
2.20657
2.22117
2.23183
2.24
2.24617
2.25105
2.25493
2.2579
2.26024
2.26221
2.26398
2.26573
2.2676
2.26972
2.27217
2.275
2.27817
2.28153
2.28489
2.28806
2.29077
2.29283
2.29437
0.992193
0.991881
0.991816
0.992167
0.992163
0.991607
0.976779
1.08429
1.2438
1.40425
1.55656
1.69848
1.82486
1.93144
2.01911
2.08991
2.14393
2.18472
2.21542
2.23706
2.25234
2.26385
2.27241
2.27848
2.28319
2.28716
2.2902
2.29227
2.29379
2.2951
2.29632
2.29754
2.29892
2.30057
2.30252
2.30473
2.30708
2.30941
2.31161
2.31341
2.31466
2.31566
0.992031
0.991723
0.991745
0.992079
0.991626
0.991793
0.97623
1.08627
1.24228
1.40462
1.56293
1.70746
1.83729
1.94779
2.03979
2.11339
2.1697
2.21355
2.24578
2.26819
2.28479
2.29729
2.30585
2.31186
2.31676
2.32078
2.32367
2.32551
2.32671
2.32759
2.32822
2.32875
2.32941
2.33027
2.33134
2.33256
2.33384
2.33509
2.33627
2.33717
2.33765
2.33811
0.992235
0.991728
0.991717
0.991777
0.991611
0.991587
0.975629
1.08759
1.24462
1.40623
1.56769
1.71737
1.85027
1.96504
2.06105
2.13709
2.19697
2.24329
2.27642
2.30056
2.3188
2.33144
2.34002
2.34653
2.3518
2.35535
2.35779
2.35959
2.36065
2.3611
2.36117
2.36114
2.36114
2.36121
2.36141
2.36171
2.36203
2.36229
2.36251
2.36258
2.36244
2.36243
0.992878
0.991714
0.991727
0.991631
0.991818
0.991737
0.975151
1.08538
1.24726
1.41119
1.57317
1.72735
1.86444
1.98335
2.08267
2.16195
2.22567
2.27332
2.30756
2.33402
2.35348
2.36621
2.37517
2.38234
2.38762
2.39075
2.39291
2.39456
2.39528
2.3953
2.39502
2.39459
2.39403
2.39337
2.39276
2.39228
2.39185
2.39134
2.39077
2.39012
2.38948
2.38915
0.992034
0.991666
0.991834
0.991552
0.991706
0.991718
0.975088
1.08529
1.24724
1.41689
1.58298
1.73904
1.87978
2.00312
2.10553
2.18828
2.25478
2.30391
2.34025
2.36831
2.38802
2.40138
2.41127
2.41869
2.42363
2.42687
2.42921
2.43045
2.43067
2.43044
2.42995
2.42914
2.42802
2.42676
2.42551
2.42437
2.42336
2.42234
2.42123
2.42009
2.41909
2.4185
0.991685
0.991871
0.992091
0.991702
0.992209
0.991628
0.97474
1.08666
1.24946
1.4239
1.59253
1.75068
1.89597
2.02271
2.12878
2.2157
2.28368
2.33512
2.37462
2.40356
2.42351
2.43778
2.44838
2.45578
2.46066
2.46405
2.46627
2.46706
2.46698
2.46659
2.46593
2.46479
2.46322
2.46152
2.45983
2.45825
2.45682
2.45543
2.45401
2.45264
2.45146
2.4507
0.992875
0.992044
0.992286
0.991877
0.991745
0.991925
0.974143
1.09343
1.25854
1.42943
1.60145
1.76535
1.9137
2.04326
2.15356
2.24269
2.31329
2.36834
2.40847
2.43764
2.45969
2.47539
2.48572
2.49285
2.49831
2.50205
2.50374
2.50422
2.50432
2.50403
2.50304
2.50149
2.49969
2.49781
2.49592
2.49405
2.49232
2.49071
2.48918
2.48776
2.48656
2.48572
0.991884
0.991865
0.992042
0.991821
0.991597
0.991702
0.973868
1.09617
1.26494
1.43809
1.61153
1.77911
1.93117
2.06516
2.17931
2.26973
2.34302
2.40191
2.44297
2.47247
2.49636
2.5135
2.52393
2.53099
2.53678
2.54058
2.5419
2.54228
2.54264
2.54253
2.54143
2.53959
2.53763
2.53574
2.53385
2.5319
2.52999
2.52826
2.52676
2.52544
2.52432
2.52347
0.99184
0.991921
0.9923
0.991701
0.992129
0.991663
0.973793
1.09831
1.26908
1.44565
1.62207
1.79262
1.94786
2.08618
2.20315
2.29686
2.3743
2.43455
2.47687
2.50886
2.53439
2.5514
2.5623
2.57031
2.57648
2.57988
2.58114
2.58177
2.58228
2.58222
2.58123
2.57943
2.57743
2.57551
2.57369
2.57181
2.56991
2.56818
2.56679
2.56564
2.56468
2.5639
0.991657
0.991632
0.991683
0.991855
0.991571
0.991754
0.973252
1.10059
1.27398
1.4528
1.63097
1.80497
1.96468
2.10625
2.22618
2.32496
2.40643
2.46713
2.511
2.54585
2.57269
2.58996
2.60152
2.61042
2.61678
2.62012
2.62176
2.62277
2.6233
2.62332
2.62262
2.62109
2.61914
2.61727
2.61556
2.61382
2.61208
2.61051
2.60924
2.60827
2.60757
2.60691
0.992851
0.991972
0.991634
0.99177
0.99167
0.991634
0.973168
1.10545
1.27801
1.45762
1.63948
1.81699
1.9799
2.12632
2.25002
2.3526
2.43732
2.49968
2.54592
2.58366
2.61107
2.62891
2.64178
2.65189
2.65837
2.66185
2.66395
2.66528
2.66582
2.66596
2.66564
2.66452
2.66287
2.66117
2.65954
2.65796
2.65652
2.65527
2.65422
2.65344
2.653
2.65247
0.992547
0.991618
0.991633
0.991865
0.991663
0.991867
0.972891
1.10748
1.27689
1.46484
1.65089
1.82798
1.99597
2.14703
2.27342
2.38056
2.46778
2.5332
2.58407
2.62304
2.65
2.66932
2.68426
2.69484
2.70127
2.70522
2.70793
2.70954
2.71023
2.71051
2.71039
2.70966
2.70846
2.70706
2.70561
2.70428
2.70321
2.70233
2.70158
2.70106
2.70085
2.70042
0.992001
0.99174
0.991674
0.991635
0.992089
0.991984
0.972589
1.11338
1.28335
1.46999
1.65927
1.83995
2.01208
2.16614
2.29742
2.4088
2.49784
2.5673
2.62163
2.66177
2.6909
2.71268
2.72847
2.73908
2.74608
2.75083
2.75388
2.75563
2.75656
2.757
2.75712
2.75687
2.75613
2.75498
2.75379
2.75283
2.75214
2.75161
2.75119
2.75096
2.75097
2.75066
0.992981
0.992474
0.991751
0.99171
0.991672
0.992043
0.97234
1.11478
1.29159
1.47856
1.66661
1.85351
2.02985
2.18723
2.32415
2.43816
2.53035
2.60448
2.66128
2.70315
2.73444
2.75758
2.77386
2.78501
2.79268
2.79795
2.80145
2.80367
2.80495
2.80565
2.80602
2.80614
2.80584
2.80508
2.80426
2.80367
2.80329
2.8031
2.80302
2.80305
2.80317
2.80298
0.991743
0.992364
0.991818
0.991839
0.99177
0.991617
0.971868
1.12109
1.29663
1.48658
1.67898
1.86902
2.04893
2.21098
2.35144
2.46982
2.56639
2.64231
2.7014
2.74681
2.77996
2.80352
2.82068
2.83331
2.84199
2.84753
2.85118
2.85377
2.85549
2.85657
2.85723
2.8575
2.85749
2.85723
2.85684
2.85661
2.85657
2.85669
2.85692
2.8572
2.85746
2.85733
0.993177
0.992127
0.992079
0.991886
0.991876
0.991702
0.971628
1.12775
1.30733
1.49704
1.69287
1.88702
2.07068
2.23699
2.38187
2.5048
2.60501
2.68396
2.74566
2.79248
2.82662
2.85173
2.87057
2.88415
2.89309
2.89889
2.90311
2.90626
2.90824
2.90954
2.91052
2.91116
2.91147
2.91154
2.91152
2.91159
2.91181
2.91223
2.91279
2.91334
2.91384
2.91382
0.992339
0.992162
0.991701
0.991903
0.991697
0.991591
0.977941
1.13274
1.31606
1.51233
1.71001
1.907
2.09624
2.26569
2.41588
2.54388
2.64588
2.72711
2.7913
2.83999
2.87665
2.90403
2.92356
2.93705
2.94642
2.95309
2.95788
2.96112
2.9634
2.96511
2.96633
2.96717
2.96766
2.96798
2.96829
2.96866
2.96913
2.96979
2.9706
2.97142
2.97218
2.9723
0.992886
0.991634
0.991678
0.991978
0.9918
0.991736
0.98995
1.14736
1.32546
1.52376
1.7293
1.93172
2.12351
2.29691
2.45249
2.58269
2.68768
2.7758
2.84404
2.8917
2.92814
2.95863
2.97945
2.99282
3.00264
3.01028
3.01511
3.01825
3.02098
3.02315
3.02465
3.0256
3.02623
3.02676
3.02732
3.02794
3.02863
3.02946
3.03046
3.03147
3.03243
3.03266
0.992828
0.991927
0.99192
0.991866
0.992166
0.968674
0.995434
1.15844
1.34374
1.54104
1.74726
1.95642
2.15277
2.33228
2.49354
2.6255
2.73338
2.82627
2.89688
2.94589
2.98405
3.01623
3.03759
3.05165
3.06253
3.0707
3.07541
3.07867
3.08178
3.0841
3.08559
3.08655
3.08733
3.08809
3.08882
3.08954
3.09033
3.09125
3.09232
3.09344
3.09454
3.09484
0.992068
0.99156
0.991853
0.991681
0.991744
0.970972
1.0073
1.16939
1.35938
1.56092
1.76845
1.98129
2.18497
2.36916
2.53284
2.67025
2.78526
2.88031
2.95058
3.00333
3.04618
3.07797
3.0992
3.11421
3.1258
3.13379
3.13853
3.14208
3.14535
3.14774
3.14935
3.15047
3.15139
3.15218
3.15285
3.15354
3.15436
3.1553
3.15636
3.15749
3.15865
3.15898
0.992486
0.991592
0.991923
0.99171
0.992057
0.96477
1.02077
1.18745
1.37239
1.57694
1.79407
2.00987
2.21672
2.40658
2.57444
2.71852
2.83839
2.93458
3.00815
3.06494
3.10931
3.14154
3.1639
3.18006
3.19227
3.20048
3.20526
3.20876
3.21203
3.21447
3.21612
3.21733
3.21834
3.21908
3.21956
3.22009
3.22082
3.22167
3.22264
3.22374
3.22493
3.22521
0.99167
0.991795
0.991577
0.991685
0.991958
0.9654
1.033
1.20284
1.38907
1.59371
1.81812
2.04074
2.25058
2.44552
2.62
2.77036
2.89189
2.99128
3.07126
3.13008
3.17428
3.20835
3.23257
3.24923
3.2613
3.2697
3.27481
3.27853
3.28181
3.28425
3.28595
3.28724
3.28822
3.28874
3.289
3.28935
3.28991
3.29058
3.29139
3.29243
3.29362
3.29379
0.991917
0.991999
0.992046
0.991592
0.967692
0.965782
1.04517
1.21268
1.40718
1.61967
1.84362
2.06835
2.28549
2.48628
2.66684
2.82135
2.94638
3.05156
3.13521
3.1954
3.24189
3.27833
3.30345
3.32053
3.33311
3.34211
3.3478
3.3518
3.35498
3.35734
3.35904
3.36021
3.36092
3.36123
3.36138
3.36159
3.36191
3.36231
3.3629
3.36381
3.36498
3.36494
0.991746
0.992267
0.992445
0.992095
0.967959
0.964712
1.06122
1.22732
1.4234
1.64382
1.8691
2.09563
2.32144
2.52919
2.71684
2.87475
3.00447
3.11648
3.20219
3.26348
3.31266
3.35222
3.37775
3.39503
3.4087
3.41867
3.42445
3.42826
3.43136
3.4337
3.43529
3.43622
3.43663
3.43675
3.43681
3.43688
3.43691
3.43698
3.43729
3.43802
3.4392
3.43886
0.991942
0.991726
0.991763
0.991904
0.962267
0.957545
1.07838
1.24548
1.43841
1.66225
1.89687
2.1318
2.35975
2.57288
2.76796
2.92975
3.06582
3.18421
3.27088
3.3345
3.3873
3.4298
3.45547
3.47247
3.48712
3.49861
3.50431
3.5077
3.51102
3.51357
3.51495
3.51552
3.51567
3.51566
3.51559
3.51545
3.51517
3.51494
3.51496
3.51549
3.51677
3.51601
0.991936
0.99158
0.991707
0.991631
0.962373
0.965669
1.08478
1.2631
1.46442
1.68387
1.92082
2.16445
2.39849
2.61809
2.81899
2.98729
3.12952
3.25002
3.33945
3.40882
3.46731
3.50778
3.53417
3.55457
3.57214
3.58233
3.58747
3.5914
3.59503
3.59714
3.59822
3.59866
3.5986
3.59836
3.59805
3.59754
3.59689
3.59638
3.59617
3.59651
3.59799
3.59663
0.991676
0.991857
0.99165
0.964787
0.962778
0.965264
1.09899
1.2817
1.48584
1.70532
1.94573
2.19736
2.43819
2.66305
2.86941
3.04652
3.19713
3.31786
3.4119
3.48984
3.54929
3.58845
3.61746
3.6424
3.65914
3.66824
3.67446
3.67975
3.68291
3.68449
3.68537
3.68568
3.68553
3.68513
3.68451
3.68351
3.68242
3.68158
3.6812
3.68147
3.68333
3.68116
0.991656
0.992468
0.991925
0.965535
0.965843
0.968331
1.11874
1.29895
1.49914
1.72654
1.97832
2.2329
2.47851
2.71258
2.92285
3.10873
3.26629
3.3888
3.4903
3.57429
3.63165
3.67286
3.70776
3.7332
3.74821
3.75811
3.76624
3.77142
3.77397
3.77555
3.77641
3.77651
3.77619
3.77564
3.77477
3.77348
3.77211
3.77099
3.7703
3.77042
3.7729
3.7697
0.992227
0.991801
0.991905
0.961957
0.958713
0.982338
1.13519
1.31526
1.51605
1.75077
2.00845
2.26585
2.52041
2.76236
2.98032
3.17501
3.33527
3.46536
3.57442
3.65679
3.71773
3.76629
3.80163
3.82503
3.84161
3.85419
3.86212
3.86631
3.86897
3.87072
3.87133
3.8714
3.87122
3.87054
3.86924
3.8676
3.86605
3.86477
3.86371
3.86361
3.86697
3.86257
0.992583
0.991697
0.962971
0.96151
0.959309
1.00076
1.1558
1.33203
1.53584
1.77986
2.03933
2.30086
2.56584
2.81542
3.04246
3.24192
3.40896
3.5484
3.65855
3.74425
3.81339
3.86298
3.89622
3.92138
3.94162
3.95456
3.96142
3.9658
3.96916
3.9706
3.97078
3.9707
3.97037
3.96942
3.96787
3.96607
3.96439
3.96293
3.9615
3.96124
3.96561
3.95988
0.992795
0.991537
0.964892
0.961412
0.959601
1.01959
1.17465
1.35077
1.56018
1.80975
2.07222
2.34048
2.61373
2.87081
3.10636
3.31162
3.48702
3.63282
3.74698
3.83919
3.91087
3.96026
3.99647
4.02539
4.04578
4.05795
4.06555
4.07093
4.0739
4.07489
4.07527
4.07535
4.07465
4.07317
4.07133
4.06941
4.06756
4.06581
4.06408
4.06373
4.06911
4.06193
0.966352
0.962345
0.959393
0.958631
0.952879
1.04305
1.19483
1.37033
1.58824
1.84137
2.10588
2.38273
2.66521
2.92943
3.17126
3.38631
3.57016
3.71862
3.84041
3.93894
4.00987
4.06192
4.10341
4.13364
4.15296
4.16569
4.17485
4.1804
4.18283
4.18401
4.18476
4.18473
4.18364
4.18186
4.1799
4.17785
4.17576
4.17373
4.1718
4.17145
4.17778
4.16914
0.96462
0.961919
0.95921
0.957297
0.961334
1.06368
1.21299
1.39337
1.62008
1.87291
2.14149
2.42861
2.7187
2.9903
3.24087
3.46472
3.65434
3.81101
3.9408
4.0401
4.11347
4.17131
4.21534
4.24547
4.26613
4.28067
4.2899
4.29477
4.29741
4.29892
4.2994
4.29896
4.29771
4.29603
4.29405
4.29186
4.28947
4.28722
4.28511
4.28476
4.29202
4.28215
0.960948
0.961334
0.960325
0.957047
0.961032
1.07962
1.2278
1.41869
1.65343
1.90573
2.18074
2.47783
2.77338
3.05372
3.3167
3.54934
3.74183
3.90785
4.04453
4.14432
4.22325
4.28735
4.33138
4.36148
4.384
4.3997
4.40848
4.41333
4.41659
4.4183
4.41867
4.41819
4.41691
4.41518
4.41332
4.41123
4.40882
4.40662
4.40443
4.40404
4.41221
4.40131
0.961648
0.962302
0.959993
0.958706
0.967217
1.08843
1.24644
1.4545
1.68701
1.93912
2.22775
2.53358
2.83291
3.12529
3.39889
3.63357
3.83605
4.01475
4.15094
4.25387
4.34188
4.40727
4.44986
4.48144
4.50673
4.52302
4.53195
4.53742
4.54098
4.5427
4.54343
4.54331
4.54202
4.54023
4.5385
4.5364
4.53394
4.53191
4.52972
4.52937
4.53847
4.52665
0.962007
0.95765
0.955595
0.953112
0.973417
1.10277
1.27881
1.48806
1.71518
1.98026
2.28008
2.58665
2.89561
3.20021
3.47843
3.72189
3.94034
4.12202
4.2581
4.37076
4.46458
4.52958
4.57449
4.60883
4.63515
4.65293
4.66321
4.66808
4.67045
4.67261
4.6742
4.67416
4.67288
4.67152
4.66998
4.66775
4.66531
4.66348
4.66122
4.66084
4.67079
4.65813
0.960881
0.958554
0.95653
0.953257
0.984266
1.12766
1.31172
1.51124
1.74414
2.02843
2.33009
2.6389
2.96389
3.27808
3.56104
3.82006
4.04678
4.22678
4.37497
4.49752
4.59054
4.65864
4.7077
4.74315
4.76992
4.78941
4.79984
4.80376
4.80613
4.80941
4.81102
4.81059
4.80964
4.80912
4.80778
4.8055
4.80318
4.80151
4.79913
4.79867
4.80938
4.79578
0.957131
0.954102
0.955612
0.954798
1.0108
1.15876
1.33062
1.53438
1.78999
2.07572
2.37784
2.70207
3.03523
3.3551
3.65196
3.92152
4.15215
4.34407
4.50191
4.62679
4.72351
4.7942
4.84434
4.88251
4.91303
4.93204
4.94073
4.94494
4.94933
4.95262
4.95296
4.95265
4.95315
4.95327
4.95191
4.9498
4.94783
4.94649
4.94396
4.94346
4.95499
4.94044
0.954233
0.955114
0.951065
0.94789
1.03687
1.18018
1.34697
1.56447
1.8313
2.1159
2.42663
2.76497
3.10535
3.4343
3.74474
4.02023
4.2627
4.46626
4.62657
4.75961
4.86436
4.93408
4.98499
5.02863
5.06209
5.07909
5.08715
5.09388
5.10049
5.10253
5.10209
5.10223
5.10354
5.10399
5.10308
5.10124
5.09931
5.09831
5.09556
5.09504
5.10755
5.09222
0.955319
0.954896
0.951291
0.95651
1.0516
1.18864
1.37317
1.60723
1.86581
2.1556
2.48354
2.83066
3.17768
3.51914
3.83854
4.12795
4.38076
4.58561
4.75822
4.9025
5.00397
5.07604
5.13591
5.18542
5.2136
5.22923
5.24059
5.25154
5.25664
5.25734
5.25807
5.26053
5.26204
5.26209
5.26134
5.25981
5.25789
5.25721
5.25429
5.25388
5.26752
5.25145
0.95492
0.95049
0.950969
0.956032
1.05986
1.21518
1.41043
1.63586
1.90086
2.21029
2.54477
2.89484
3.25723
3.61184
3.9381
4.2399
4.50469
4.71666
4.90009
5.04873
5.14862
5.22706
5.2986
5.34589
5.37227
5.38921
5.40528
5.41531
5.41815
5.41926
5.4226
5.42628
5.42777
5.42789
5.42719
5.42568
5.42378
5.42347
5.42051
5.42012
5.4348
5.418
0.950556
0.951238
0.946905
0.963236
1.08353
1.24514
1.4338
1.66373
1.94908
2.26341
2.60002
2.96579
3.33961
3.70257
4.04451
4.36192
4.63188
4.85528
5.04973
5.19691
5.3045
5.39526
5.4662
5.50898
5.53812
5.56285
5.5792
5.58487
5.58715
5.5918
5.59699
5.59975
5.60096
5.60132
5.60075
5.59919
5.59763
5.59815
5.59488
5.59422
5.60952
5.59199
0.949978
0.951537
0.945953
0.992053
1.11525
1.26429
1.45593
1.70789
1.9957
2.30318
2.65584
3.04044
3.42261
3.7968
4.15807
4.4861
4.7618
5.00163
5.20178
5.35239
5.47546
5.57431
5.63677
5.67925
5.71421
5.74462
5.75779
5.76211
5.76722
5.77527
5.77938
5.78122
5.78254
5.78314
5.78257
5.78099
5.77979
5.78134
5.77744
5.77652
5.79206
5.77375
0.949863
0.94584
0.953511
1.01794
1.13229
1.28926
1.50119
1.75174
2.02574
2.34787
2.72692
3.11642
3.50443
3.89741
4.27511
4.60875
4.89905
5.15622
5.35973
5.5213
5.65755
5.75406
5.81373
5.85991
5.90419
5.93295
5.94512
5.95105
5.96
5.96716
5.96965
5.97132
5.97284
5.97302
5.97264
5.972
5.97138
5.97318
5.96847
5.96708
5.98269
5.96369
0.947289
0.943542
0.961139
1.03815
1.15531
1.32444
1.54305
1.78147
2.05747
2.40929
2.7982
3.1898
3.59135
4.00266
4.39499
4.7387
5.04218
5.31303
5.52682
5.69947
5.84324
5.9417
6.00453
6.05468
6.10314
6.13005
6.14235
6.15027
6.16085
6.16674
6.16862
6.1705
6.17233
6.17241
6.17234
6.17273
6.17236
6.17347
6.16839
6.16648
6.1821
6.16231
0.944247
0.951744
0.975925
1.05956
1.18594
1.36486
1.5732
1.81001
2.1103
2.4763
2.86267
3.26329
3.68681
4.11451
4.519
4.87559
5.19751
5.48181
5.70259
5.88511
6.03932
6.14337
6.208
6.25938
6.30989
6.33788
6.34981
6.35649
6.36701
6.37409
6.37574
6.37704
6.37982
6.38152
6.38236
6.38323
6.38244
6.38246
6.3776
6.37557
6.39165
6.37117
0.951824
0.951695
0.993205
1.08265
1.22102
1.39839
1.5977
1.84774
2.17412
2.53524
2.92292
3.34761
3.79019
4.22923
4.64629
5.01817
5.35983
5.65645
5.88711
6.08434
6.24646
6.35232
6.41971
6.47296
6.52861
6.55456
6.56503
6.57069
6.58321
6.59098
6.59188
6.59281
6.59711
6.60033
6.60146
6.60221
6.60124
6.60095
6.59665
6.5948
6.61178
6.59077
0.951844
0.967921
1.01834
1.11765
1.25371
1.4196
1.63222
1.90849
2.22872
2.59033
3.0006
3.43882
3.89006
4.35042
4.78086
5.17383
5.53366
5.83441
6.08213
6.29684
6.45679
6.55892
6.63852
6.70754
6.75586
6.7773
6.78881
6.80191
6.81569
6.81896
6.81872
6.82216
6.82814
6.83054
6.831
6.83079
6.82967
6.82995
6.82597
6.82422
6.84211
6.82066
0.965072
0.995637
1.05474
1.14871
1.27487
1.44419
1.67917
1.96499
2.27981
2.64714
3.08046
3.53443
3.99806
4.47421
4.92081
5.33604
5.71111
6.01991
6.28648