/*--------------------------------*- C++ -*----------------------------------*\
| =========                 |                                                 |
| \\      /  F ield         | OpenFOAM: The Open Source CFD Toolbox           |
|  \\    /   O peration     | Version:  2406                                  |
|   \\  /    A nd           | Website:  www.openfoam.com                      |
|    \\/     M anipulation  |                                                 |
\*---------------------------------------------------------------------------*/
FoamFile
{
    version     2.0;
    format      ascii;
    arch        "LSB;label=32;scalar=64";
    class       volScalarField;
    location    "0.109";
    object      T;
}
// * * * * * * * * * * * * * * * * * * * * * * * * * * * * * * * * * * * * * //

dimensions      [0 0 0 1 0 0 0];

internalField   nonuniform List<scalar> 
8988
(
264.661
264.359
263.95
263.68
263.54
263.462
263.414
263.385
263.368
263.359
263.352
263.346
263.342
263.34
263.341
263.342
263.343
263.344
263.345
263.347
263.35
263.353
263.356
263.36
263.363
263.368
263.372
263.377
263.383
263.389
263.395
263.402
263.41
263.417
263.426
263.434
263.443
263.452
263.46
263.467
263.471
263.479
266.472
266.061
265.329
264.585
264.103
263.8
263.604
263.512
263.476
263.443
263.413
263.404
263.4
263.395
263.388
263.385
263.382
263.379
263.377
263.375
263.374
263.374
263.374
263.374
263.374
263.375
263.377
263.38
263.381
263.383
263.386
263.39
263.392
263.395
263.397
263.4
263.402
263.404
263.405
263.404
263.403
263.404
267.849
267.434
266.615
265.576
264.746
264.259
263.943
263.709
263.592
263.553
263.519
263.478
263.462
263.454
263.444
263.436
263.43
263.426
263.423
263.419
263.416
263.413
263.41
263.407
263.404
263.401
263.399
263.397
263.395
263.392
263.39
263.388
263.386
263.382
263.378
263.373
263.367
263.36
263.353
263.346
263.34
263.338
269.038
268.615
267.746
266.563
265.505
264.803
264.334
263.996
263.786
263.705
263.654
263.591
263.553
263.537
263.523
263.507
263.497
263.49
263.483
263.477
263.471
263.465
263.458
263.45
263.442
263.434
263.425
263.416
263.405
263.394
263.382
263.371
263.359
263.346
263.332
263.318
263.303
263.288
263.274
263.262
263.252
263.247
269.992
269.611
268.731
267.533
266.323
265.363
264.749
264.345
264.052
263.875
263.779
263.709
263.659
263.628
263.604
263.586
263.572
263.56
263.55
263.54
263.53
263.52
263.508
263.495
263.483
263.469
263.452
263.434
263.415
263.395
263.373
263.351
263.327
263.302
263.277
263.252
263.228
263.207
263.187
263.171
263.158
263.149
270.904
270.506
269.592
268.361
267.101
265.999
265.18
264.663
264.33
264.082
263.916
263.823
263.761
263.714
263.684
263.661
263.641
263.625
263.611
263.597
263.583
263.568
263.55
263.531
263.511
263.489
263.463
263.435
263.405
263.374
263.341
263.308
263.274
263.24
263.206
263.174
263.145
263.119
263.097
263.077
263.062
263.049
271.775
271.331
270.412
269.108
267.748
266.59
265.667
264.986
264.553
264.267
264.057
263.92
263.84
263.782
263.742
263.711
263.686
263.668
263.65
263.633
263.616
263.597
263.575
263.552
263.527
263.499
263.468
263.433
263.396
263.357
263.315
263.273
263.23
263.186
263.144
263.104
263.068
263.036
263.009
262.986
262.968
262.951
272.501
272.105
271.202
269.853
268.369
267.065
266.077
265.325
264.77
264.407
264.172
264.004
263.901
263.826
263.773
263.737
263.707
263.683
263.662
263.643
263.624
263.605
263.582
263.556
263.529
263.499
263.464
263.426
263.386
263.342
263.295
263.246
263.196
263.145
263.094
263.045
263
262.96
262.926
262.898
262.877
262.861
273.21
272.809
271.853
270.504
268.999
267.557
266.406
265.584
264.979
264.532
264.231
264.043
263.912
263.823
263.764
263.724
263.691
263.663
263.642
263.622
263.603
263.585
263.565
263.541
263.514
263.482
263.447
263.41
263.369
263.324
263.275
263.224
263.17
263.114
263.056
262.999
262.945
262.895
262.853
262.819
262.795
262.782
273.87
273.446
272.515
271.085
269.474
268.018
266.79
265.818
265.115
264.625
264.278
264.044
263.887
263.783
263.716
263.664
263.627
263.598
263.575
263.557
263.541
263.526
263.51
263.491
263.468
263.442
263.413
263.381
263.344
263.302
263.255
263.205
263.15
263.092
263.03
262.968
262.906
262.849
262.799
262.759
262.73
262.714
274.419
274.034
273.077
271.66
270.005
268.389
267.058
266.053
265.264
264.683
264.29
264.025
263.839
263.712
263.632
263.574
263.532
263.5
263.476
263.457
263.442
263.43
263.418
263.404
263.388
263.371
263.351
263.328
263.3
263.266
263.226
263.18
263.129
263.072
263.011
262.948
262.885
262.825
262.771
262.725
262.691
262.67
275.003
274.548
273.556
272.108
270.451
268.808
267.347
266.204
265.37
264.742
264.284
263.98
263.77
263.623
263.531
263.466
263.417
263.384
263.358
263.336
263.321
263.309
263.3
263.29
263.278
263.267
263.255
263.241
263.223
263.2
263.173
263.138
263.097
263.049
262.996
262.939
262.88
262.821
262.767
262.719
262.682
262.658
275.449
275.031
274.076
272.561
270.794
269.117
267.633
266.387
265.443
264.768
264.27
263.926
263.687
263.518
263.417
263.345
263.288
263.251
263.225
263.202
263.185
263.174
263.167
263.159
263.151
263.143
263.134
263.124
263.113
263.1
263.085
263.066
263.042
263.013
262.976
262.933
262.884
262.833
262.781
262.735
262.698
262.675
275.854
275.466
274.498
273.005
271.183
269.376
267.842
266.559
265.534
264.776
264.237
263.862
263.595
263.404
263.291
263.21
263.147
263.106
263.077
263.054
263.038
263.026
263.02
263.015
263.01
263.005
262.999
262.992
262.985
262.977
262.969
262.962
262.955
262.947
262.935
262.916
262.889
262.854
262.814
262.775
262.742
262.721
276.29
275.861
274.843
273.376
271.583
269.691
268.021
266.688
265.625
264.796
264.199
263.793
263.497
263.291
263.161
263.068
262.999
262.955
262.922
262.897
262.881
262.871
262.863
262.86
262.858
262.855
262.853
262.852
262.85
262.849
262.848
262.849
262.853
262.86
262.868
262.874
262.875
262.869
262.855
262.833
262.812
262.795
276.761
276.275
275.256
273.724
271.894
270.01
268.259
266.813
265.698
264.824
264.179
263.725
263.395
263.178
263.03
262.918
262.845
262.797
262.761
262.735
262.717
262.707
262.702
262.7
262.7
262.701
262.705
262.709
262.714
262.719
262.726
262.736
262.749
262.765
262.786
262.811
262.838
262.863
262.88
262.891
262.893
262.891
277.15
276.698
275.685
274.091
272.169
270.24
268.489
266.979
265.768
264.847
264.168
263.661
263.299
263.063
262.889
262.766
262.691
262.635
262.596
262.57
262.553
262.544
262.541
262.542
262.544
262.549
262.558
262.568
262.58
262.593
262.608
262.626
262.647
262.673
262.704
262.742
262.787
262.836
262.885
262.927
262.959
262.977
277.06
276.671
275.738
274.319
272.495
270.5
268.672
267.145
265.878
264.886
264.155
263.609
263.221
262.952
262.755
262.625
262.543
262.479
262.434
262.409
262.394
262.386
262.384
262.387
262.393
262.403
262.416
262.432
262.45
262.471
262.494
262.521
262.551
262.586
262.628
262.676
262.733
262.796
262.864
262.927
262.978
263.013
277.141
276.71
275.818
274.437
272.667
270.743
268.894
267.288
265.976
264.939
264.154
263.571
263.148
262.854
262.642
262.495
262.402
262.334
262.286
262.26
262.246
262.24
262.239
262.244
262.253
262.267
262.285
262.306
262.33
262.358
262.389
262.424
262.464
262.508
262.559
262.616
262.68
262.749
262.822
262.895
262.955
262.999
277.176
276.818
275.975
274.579
272.801
270.911
269.097
267.447
266.075
265
264.171
263.548
263.091
262.77
262.543
262.382
262.275
262.202
262.153
262.124
262.111
262.107
262.108
262.114
262.126
262.143
262.165
262.192
262.222
262.256
262.294
262.337
262.384
262.436
262.494
262.557
262.624
262.694
262.766
262.833
262.886
262.931
277.281
276.95
276.1
274.747
273.011
271.083
269.25
267.609
266.196
265.071
264.203
263.544
263.057
262.707
262.461
262.29
262.169
262.089
262.039
262.009
261.994
261.99
261.992
262
262.013
262.033
262.06
262.091
262.127
262.166
262.209
262.256
262.308
262.365
262.426
262.491
262.557
262.624
262.686
262.739
262.772
262.808
277.484
277.102
276.275
274.885
273.145
271.298
269.465
267.749
266.307
265.166
264.255
263.555
263.042
262.665
262.398
262.215
262.083
261.995
261.942
261.911
261.895
261.891
261.894
261.902
261.916
261.937
261.967
262.002
262.04
262.082
262.128
262.178
262.232
262.289
262.35
262.411
262.472
262.529
262.576
262.612
262.627
262.653
277.629
277.29
276.451
275.109
273.376
271.476
269.631
267.927
266.452
265.263
264.316
263.588
263.047
262.647
262.362
262.163
262.021
261.925
261.867
261.834
261.817
261.811
261.813
261.819
261.834
261.856
261.886
261.92
261.958
262
262.047
262.096
262.148
262.202
262.257
262.31
262.359
262.401
262.432
262.455
262.462
262.481
277.804
277.494
276.678
275.342
273.599
271.67
269.824
268.12
266.608
265.37
264.401
263.644
263.069
262.65
262.347
262.13
261.979
261.877
261.813
261.777
261.759
261.752
261.75
261.753
261.763
261.783
261.811
261.843
261.879
261.919
261.962
262.006
262.051
262.096
262.139
262.179
262.214
262.243
262.264
262.278
262.282
262.299
278.037
277.723
276.911
275.551
273.785
271.9
270.055
268.3
266.753
265.501
264.505
263.713
263.112
262.676
262.356
262.12
261.956
261.847
261.777
261.734
261.712
261.701
261.697
261.698
261.704
261.718
261.74
261.767
261.798
261.831
261.865
261.899
261.933
261.965
261.995
262.022
262.046
262.067
262.082
262.092
262.094
262.109
278.321
277.926
277.069
275.758
274.069
272.156
270.234
268.47
266.93
265.639
264.606
263.794
263.171
262.714
262.375
262.127
261.953
261.835
261.755
261.706
261.676
261.66
261.651
261.649
261.65
261.655
261.667
261.686
261.708
261.73
261.753
261.775
261.796
261.816
261.835
261.852
261.868
261.882
261.892
261.899
261.899
261.911
278.604
278.152
277.282
276.003
274.346
272.44
270.452
268.669
267.128
265.802
264.734
263.895
263.247
262.764
262.405
262.142
261.956
261.826
261.739
261.682
261.645
261.62
261.605
261.596
261.59
261.587
261.589
261.596
261.607
261.618
261.629
261.639
261.649
261.658
261.667
261.675
261.683
261.691
261.697
261.701
261.699
261.71
278.808
278.433
277.614
276.266
274.546
272.651
270.73
268.905
267.296
265.961
264.867
263.994
263.325
262.816
262.435
262.157
261.956
261.814
261.718
261.652
261.606
261.574
261.551
261.534
261.52
261.509
261.502
261.499
261.499
261.5
261.5
261.499
261.498
261.497
261.496
261.496
261.496
261.498
261.499
261.5
261.497
261.506
279.033
278.651
277.804
276.513
274.823
272.858
270.894
269.09
267.482
266.095
264.971
264.08
263.381
262.846
262.446
262.151
261.937
261.785
261.679
261.603
261.549
261.511
261.483
261.46
261.438
261.421
261.406
261.395
261.385
261.376
261.368
261.358
261.348
261.338
261.327
261.318
261.311
261.306
261.303
261.3
261.295
261.302
279.168
278.853
278.039
276.711
274.944
273.011
271.094
269.25
267.591
266.2
265.054
264.129
263.406
262.85
262.432
262.122
261.895
261.732
261.618
261.536
261.478
261.435
261.4
261.37
261.344
261.321
261.301
261.283
261.266
261.25
261.234
261.217
261.199
261.181
261.163
261.146
261.131
261.12
261.11
261.102
261.095
261.1
279.377
278.959
278.138
276.764
275.063
273.198
271.257
269.327
267.662
266.272
265.092
264.14
263.396
262.822
262.391
262.067
261.827
261.656
261.535
261.447
261.384
261.337
261.298
261.264
261.235
261.21
261.186
261.164
261.143
261.122
261.1
261.076
261.052
261.027
261.002
260.978
260.957
260.938
260.923
260.91
260.899
260.901
279.483
279.038
278.203
276.86
275.2
273.32
271.331
269.394
267.728
266.31
265.092
264.125
263.362
262.767
262.322
261.984
261.733
261.557
261.429
261.335
261.27
261.22
261.176
261.139
261.108
261.082
261.058
261.034
261.01
260.987
260.962
260.935
260.906
260.876
260.846
260.817
260.79
260.764
260.742
260.724
260.709
260.707
279.431
279.114
278.316
277.012
275.272
273.291
271.343
269.499
267.773
266.282
265.069
264.089
263.297
262.687
262.227
261.873
261.615
261.432
261.296
261.198
261.132
261.081
261.036
260.998
260.967
260.94
260.915
260.891
260.867
260.843
260.817
260.789
260.759
260.727
260.693
260.66
260.628
260.597
260.569
260.546
260.528
260.522
279.491
279.117
278.283
277.016
275.339
273.353
271.341
269.475
267.774
266.266
265.022
264.016
263.208
262.582
262.104
261.741
261.476
261.282
261.142
261.043
260.973
260.919
260.875
260.837
260.807
260.781
260.757
260.734
260.712
260.688
260.663
260.636
260.606
260.574
260.54
260.505
260.469
260.435
260.403
260.377
260.357
260.347
279.518
279.114
278.308
276.96
275.267
273.395
271.415
269.456
267.707
266.228
264.968
263.926
263.104
262.463
261.968
261.597
261.32
261.117
260.975
260.873
260.798
260.742
260.698
260.66
260.631
260.605
260.584
260.563
260.542
260.521
260.499
260.474
260.447
260.417
260.383
260.348
260.313
260.278
260.245
260.218
260.196
260.183
279.413
279.086
278.285
276.98
275.26
273.328
271.362
269.446
267.679
266.156
264.884
263.828
262.987
262.327
261.82
261.437
261.149
260.94
260.792
260.686
260.609
260.553
260.509
260.472
260.441
260.417
260.397
260.378
260.359
260.341
260.322
260.301
260.277
260.251
260.221
260.189
260.155
260.123
260.092
260.065
260.044
260.03
279.421
279.004
278.167
276.923
275.285
273.366
271.3
269.365
267.643
266.114
264.795
263.723
262.867
262.186
261.664
261.269
260.971
260.756
260.602
260.489
260.409
260.351
260.307
260.27
260.24
260.217
260.199
260.182
260.166
260.151
260.135
260.117
260.098
260.076
260.051
260.024
259.995
259.967
259.94
259.917
259.899
259.886
279.341
278.965
278.187
276.853
275.172
273.31
271.328
269.349
267.569
266.04
264.722
263.62
262.741
262.045
261.507
261.095
260.786
260.562
260.4
260.283
260.201
260.141
260.094
260.059
260.031
260.008
259.991
259.976
259.963
259.951
259.939
259.926
259.911
259.894
259.875
259.854
259.832
259.809
259.788
259.771
259.757
259.747
279.209
278.917
278.145
276.876
275.15
273.212
271.27
269.361
267.537
265.953
264.63
263.518
262.609
261.897
261.343
260.914
260.597
260.364
260.191
260.07
259.986
259.923
259.875
259.841
259.815
259.793
259.775
259.762
259.753
259.744
259.735
259.727
259.717
259.706
259.693
259.678
259.663
259.648
259.633
259.622
259.614
259.607
279.198
278.826
278.019
276.808
275.17
273.235
271.194
269.28
267.51
265.907
264.529
263.405
262.479
261.747
261.171
260.73
260.406
260.157
259.979
259.857
259.767
259.699
259.652
259.62
259.593
259.571
259.555
259.544
259.537
259.531
259.527
259.523
259.518
259.512
259.505
259.497
259.489
259.481
259.473
259.467
259.464
259.461
279.194
278.762
277.944
276.696
275.116
273.24
271.199
269.208
267.433
265.847
264.445
263.284
262.345
261.591
260.996
260.548
260.206
259.948
259.768
259.639
259.541
259.474
259.429
259.395
259.366
259.347
259.334
259.324
259.318
259.315
259.315
259.314
259.314
259.313
259.311
259.309
259.307
259.306
259.304
259.304
259.305
259.305
279.066
278.715
277.962
276.653
275.001
273.167
271.192
269.193
267.354
265.751
264.356
263.164
262.203
261.429
260.822
260.36
260.001
259.74
259.558
259.417
259.314
259.249
259.203
259.165
259.138
259.122
259.111
259.102
259.099
259.099
259.1
259.102
259.105
259.109
259.113
259.116
259.118
259.122
259.125
259.129
259.133
259.135
278.916
278.63
277.887
276.653
275.003
273.049
271.067
269.149
267.312
265.649
264.226
263.032
262.054
261.259
260.641
260.166
259.796
259.532
259.341
259.194
259.093
259.025
258.975
258.937
258.912
258.896
258.885
258.878
258.878
258.88
258.882
258.887
258.894
258.901
258.908
258.915
258.921
258.928
258.935
258.942
258.948
258.952
278.823
278.525
277.791
276.57
274.929
272.962
270.981
269.087
267.245
265.536
264.102
262.904
261.901
261.094
260.461
259.966
259.595
259.323
259.117
258.969
258.869
258.798
258.745
258.708
258.684
258.668
258.657
258.654
258.655
258.658
258.662
258.669
258.678
258.687
258.697
258.707
258.716
258.724
258.733
258.741
258.749
258.753
278.782
278.401
277.657
276.397
274.791
272.954
270.969
268.946
267.093
265.444
263.987
262.751
261.739
260.924
260.272
259.773
259.393
259.105
258.9
258.755
258.645
258.567
258.517
258.483
258.457
258.439
258.431
258.43
258.43
258.432
258.438
258.447
258.458
258.468
258.479
258.49
258.501
258.51
258.52
258.528
258.536
258.541
278.647
278.302
277.577
276.288
274.659
272.852
270.887
268.868
266.977
265.317
263.862
262.608
261.58
260.746
260.08
259.583
259.194
258.888
258.683
258.539
258.421
258.337
258.288
258.256
258.228
258.21
258.205
258.204
258.203
258.204
258.211
258.222
258.233
258.243
258.254
258.265
258.276
258.287
258.296
258.303
258.31
258.315
278.464
278.197
277.464
276.237
274.578
272.709
270.769
268.798
266.889
265.202
263.732
262.467
261.428
260.575
259.902
259.394
258.987
258.68
258.472
258.318
258.193
258.112
258.062
258.025
257.996
257.981
257.976
257.974
257.972
257.973
257.979
257.99
258.001
258.011
258.021
258.032
258.043
258.053
258.061
258.068
258.074
258.078
278.353
278.072
277.346
276.119
274.47
272.611
270.688
268.726
266.79
265.09
263.616
262.335
261.276
260.413
259.731
259.2
258.777
258.475
258.263
258.096
257.967
257.887
257.835
257.794
257.764
257.75
257.743
257.739
257.738
257.738
257.743
257.751
257.762
257.772
257.781
257.791
257.801
257.81
257.817
257.823
257.827
257.83
278.228
277.956
277.231
275.994
274.361
272.535
270.606
268.614
266.702
265.003
263.504
262.206
261.135
260.25
259.556
259.011
258.577
258.272
258.052
257.872
257.744
257.663
257.605
257.559
257.529
257.515
257.506
257.5
257.499
257.499
257.501
257.508
257.516
257.525
257.534
257.543
257.55
257.557
257.563
257.568
257.57
257.573
278.093
277.809
277.097
275.911
274.316
272.41
270.456
268.544
266.678
264.889
263.364
262.085
260.988
260.084
259.384
258.821
258.381
258.066
257.825
257.644
257.522
257.435
257.368
257.32
257.292
257.275
257.263
257.257
257.254
257.253
257.255
257.259
257.265
257.272
257.28
257.287
257.292
257.297
257.301
257.304
257.306
257.308
278.06
277.659
276.893
275.76
274.215
272.363
270.37
268.417
266.559
264.798
263.253
261.957
260.841
259.929
259.209
258.631
258.19
257.859
257.605
257.422
257.292
257.195
257.125
257.079
257.048
257.028
257.015
257.007
257.004
257.002
257.002
257.004
257.008
257.013
257.019
257.024
257.028
257.03
257.033
257.034
257.034
257.036
277.842
277.564
276.835
275.658
274.064
272.225
270.311
268.357
266.417
264.672
263.153
261.816
260.683
259.763
259.019
258.437
257.987
257.638
257.377
257.19
257.052
256.951
256.88
256.833
256.8
256.777
256.762
256.753
256.747
256.745
256.743
256.743
256.744
256.748
256.752
256.754
256.756
256.757
256.758
256.758
256.757
256.758
277.719
277.397
276.66
275.529
274.017
272.121
270.16
268.226
266.319
264.553
263.008
261.662
260.519
259.582
258.829
258.232
257.768
257.417
257.151
256.95
256.806
256.705
256.632
256.579
256.542
256.519
256.503
256.492
256.485
256.48
256.477
256.476
256.476
256.477
256.479
256.48
256.48
256.479
256.478
256.477
256.475
256.476
277.59
277.257
276.561
275.34
273.781
272.032
270.108
268.093
266.153
264.412
262.853
261.491
260.338
259.388
258.623
258.012
257.538
257.179
256.906
256.703
256.558
256.453
256.374
256.317
256.28
256.256
256.238
256.225
256.216
256.211
256.207
256.204
256.202
256.202
256.201
256.201
256.199
256.197
256.194
256.192
256.189
256.189
277.368
277.113
276.404
275.233
273.634
271.81
269.932
267.988
266.015
264.223
262.671
261.308
260.134
259.182
258.399
257.772
257.299
256.937
256.658
256.452
256.298
256.185
256.104
256.05
256.012
255.985
255.965
255.951
255.942
255.934
255.929
255.925
255.923
255.921
255.919
255.917
255.914
255.911
255.907
255.903
255.899
255.899
277.222
276.864
276.13
275.037
273.534
271.7
269.698
267.749
265.874
264.079
262.474
261.091
259.921
258.962
258.163
257.538
257.061
256.671
256.379
256.184
256.036
255.91
255.827
255.774
255.735
255.704
255.685
255.673
255.661
255.652
255.645
255.641
255.638
255.635
255.632
255.629
255.625
255.621
255.617
255.612
255.607
255.606
276.975
276.661
275.983
274.783
273.245
271.498
269.579
267.564
265.627
263.877
262.292
260.877
259.698
258.72
257.905
257.286
256.806
256.401
256.106
255.91
255.758
255.628
255.544
255.49
255.448
255.415
255.397
255.384
255.371
255.362
255.355
255.351
255.348
255.344
255.34
255.336
255.332
255.328
255.323
255.318
255.313
255.311
276.656
276.411
275.722
274.574
273.023
271.25
269.356
267.384
265.416
263.65
262.083
260.664
259.457
258.471
257.661
257.028
256.522
256.119
255.834
255.626
255.457
255.333
255.252
255.195
255.151
255.12
255.102
255.088
255.075
255.066
255.059
255.054
255.05
255.046
255.043
255.039
255.035
255.031
255.026
255.021
255.016
255.014
276.473
276.084
275.364
274.257
272.831
271.091
269.108
267.107
265.238
263.465
261.838
260.426
259.222
258.222
257.408
256.754
256.238
255.842
255.549
255.328
255.157
255.035
254.952
254.892
254.846
254.815
254.798
254.785
254.772
254.762
254.756
254.751
254.746
254.743
254.741
254.738
254.734
254.73
254.726
254.721
254.716
254.715
276.196
275.812
275.09
273.994
272.589
270.854
268.886
266.871
265.018
263.274
261.609
260.173
258.977
257.968
257.137
256.468
255.958
255.557
255.243
255.02
254.856
254.73
254.641
254.581
254.537
254.507
254.488
254.475
254.462
254.453
254.447
254.441
254.437
254.435
254.433
254.432
254.429
254.426
254.422
254.418
254.412
254.412
275.816
275.582
274.92
273.792
272.259
270.523
268.667
266.713
264.786
262.996
261.371
259.948
258.727
257.708
256.863
256.191
255.678
255.261
254.94
254.718
254.549
254.417
254.328
254.268
254.223
254.191
254.171
254.157
254.146
254.137
254.131
254.126
254.123
254.122
254.121
254.12
254.118
254.116
254.114
254.11
254.105
254.105
275.531
275.292
274.642
273.542
272.056
270.252
268.389
266.492
264.576
262.739
261.136
259.728
258.475
257.438
256.577
255.906
255.386
254.95
254.63
254.411
254.236
254.095
254.007
253.949
253.901
253.866
253.847
253.834
253.823
253.815
253.809
253.806
253.804
253.804
253.803
253.803
253.802
253.802
253.801
253.798
253.793
253.794
275.273
274.976
274.299
273.264
271.83
270.03
268.097
266.225
264.381
262.538
260.885
259.447
258.211
257.169
256.291
255.619
255.085
254.633
254.319
254.098
253.913
253.765
253.68
253.625
253.575
253.536
253.517
253.507
253.496
253.487
253.482
253.48
253.48
253.48
253.48
253.48
253.481
253.482
253.482
253.48
253.475
253.478
274.985
274.68
274.06
272.9
271.454
269.821
267.97
265.968
264.068
262.308
260.667
259.195
257.949
256.895
256.01
255.325
254.778
254.331
254.016
253.778
253.576
253.442
253.357
253.291
253.231
253.198
253.183
253.171
253.159
253.152
253.149
253.148
253.148
253.149
253.15
253.152
253.155
253.156
253.157
253.156
253.15
253.155
274.755
274.379
273.687
272.596
271.214
269.586
267.729
265.703
263.809
262.083
260.443
258.944
257.684
256.626
255.736
255.028
254.46
254.027
253.703
253.438
253.24
253.116
253.024
252.943
252.889
252.862
252.843
252.826
252.817
252.812
252.81
252.809
252.81
252.812
252.814
252.818
252.822
252.825
252.826
252.825
252.818
252.826
274.373
274.007
273.32
272.3
270.971
269.332
267.406
265.457
263.636
261.861
260.162
258.678
257.419
256.338
255.453
254.724
254.143
253.717
253.373
253.094
252.911
252.784
252.673
252.593
252.549
252.519
252.494
252.478
252.471
252.467
252.465
252.465
252.467
252.469
252.472
252.477
252.482
252.486
252.488
252.488
252.478
252.49
274.004
273.605
272.934
271.955
270.68
269.067
267.137
265.223
263.426
261.613
259.904
258.434
257.15
256.054
255.155
254.408
253.834
253.391
253.029
252.766
252.577
252.427
252.319
252.25
252.201
252.163
252.14
252.128
252.121
252.116
252.115
252.116
252.117
252.12
252.124
252.13
252.135
252.14
252.144
252.144
252.132
252.148
273.689
273.28
272.597
271.684
270.401
268.735
266.818
264.992
263.191
261.329
259.645
258.18
256.865
255.759
254.842
254.097
253.513
253.047
252.694
252.428
252.216
252.068
251.972
251.899
251.839
251.802
251.783
251.772
251.762
251.759
251.759
251.76
251.762
251.766
251.771
251.777
251.783
251.788
251.793
251.794
251.778
251.799
273.252
272.89
272.215
271.358
270.104
268.403
266.529
264.742
262.917
261.047
259.378
257.903
256.573
255.458
254.528
253.781
253.181
252.707
252.352
252.072
251.859
251.717
251.614
251.532
251.474
251.44
251.42
251.406
251.398
251.396
251.396
251.397
251.4
251.405
251.411
251.418
251.424
251.43
251.436
251.437
251.418
251.443
273.114
272.787
272.066
271.095
269.777
268.012
266.234
264.489
262.613
260.756
259.111
257.615
256.268
255.148
254.218
253.452
252.839
252.371
252
251.708
251.506
251.361
251.245
251.161
251.109
251.075
251.051
251.036
251.031
251.028
251.027
251.028
251.032
251.038
251.045
251.052
251.058
251.065
251.071
251.072
251.051
251.08
272.901
272.653
271.967
270.86
269.395
267.669
265.971
264.202
262.28
260.471
258.835
257.311
255.959
254.836
253.894
253.116
252.501
252.019
251.634
251.351
251.148
250.989
250.869
250.789
250.735
250.697
250.673
250.661
250.655
250.652
250.652
250.654
250.659
250.665
250.671
250.678
250.685
250.693
250.699
250.7
250.677
250.709
272.692
272.474
271.782
270.581
269.022
267.398
265.752
263.894
261.942
260.184
258.541
256.996
255.652
254.519
253.552
252.765
252.161
251.662
251.267
250.993
250.779
250.607
250.492
250.415
250.357
250.317
250.296
250.285
250.277
250.273
250.274
250.276
250.281
250.287
250.292
250.299
250.306
250.313
250.319
250.321
250.295
250.329
272.567
272.203
271.513
270.264
268.759
267.236
265.485
263.482
261.613
259.903
258.205
256.652
255.329
254.174
253.194
252.426
251.806
251.28
250.902
250.628
250.393
250.224
250.118
250.04
249.976
249.936
249.915
249.903
249.895
249.891
249.89
249.892
249.896
249.902
249.907
249.913
249.921
249.927
249.933
249.934
249.906
249.942
272.359
271.885
271.109
269.978
268.622
266.994
265.05
263.104
261.341
259.567
257.843
256.332
254.998
253.822
252.856
252.08
251.424
250.908
250.545
250.25
250.007
249.846
249.738
249.654
249.59
249.547
249.523
249.513
249.509
249.504
249.501
249.502
249.507
249.511
249.515
249.522
249.529
249.534
249.541
249.542
249.512
249.549
272.013
271.579
270.782
269.788
268.411
266.605
264.624
262.843
261.064
259.187
257.505
256.025
254.648
253.468
252.514
251.707
251.046
250.556
250.167
249.854
249.624
249.46
249.344
249.261
249.198
249.152
249.128
249.121
249.117
249.109
249.106
249.109
249.112
249.114
249.118
249.124
249.131
249.135
249.142
249.143
249.113
249.151
271.579
271.332
270.623
269.481
267.944
266.142
264.376
262.586
260.648
258.824
257.188
255.664
254.291
253.125
252.148
251.332
250.683
250.173
249.77
249.463
249.231
249.066
248.952
248.865
248.795
248.752
248.734
248.727
248.717
248.71
248.711
248.713
248.712
248.712
248.716
248.722
248.727
248.731
248.737
248.739
248.707
248.747
271.187
270.986
270.318
269.104
267.501
265.821
264.156
262.258
260.276
258.514
256.868
255.312
253.948
252.781
251.785
250.977
250.312
249.786
249.392
249.073
248.828
248.673
248.562
248.464
248.388
248.353
248.338
248.324
248.309
248.306
248.308
248.309
248.307
248.306
248.309
248.314
248.318
248.321
248.328
248.329
248.296
248.337
271.06
270.664
269.947
268.706
267.239
265.676
263.823
261.816
259.971
258.216
256.51
254.956
253.605
252.424
251.428
250.601
249.929
249.418
249.005
248.667
248.442
248.287
248.157
248.048
247.989
247.959
247.936
247.912
247.902
247.902
247.902
247.897
247.894
247.894
247.897
247.9
247.905
247.907
247.914
247.915
247.88
247.921
270.836
270.378
269.571
268.497
267.076
265.29
263.376
261.522
259.67
257.827
256.138
254.618
253.24
252.046
251.062
250.223
249.539
249.029
248.601
248.266
248.054
247.889
247.735
247.636
247.585
247.553
247.519
247.498
247.495
247.494
247.487
247.479
247.477
247.477
247.479
247.483
247.488
247.488
247.495
247.496
247.46
247.501
270.274
270.041
269.369
268.243
266.686
264.873
263.094
261.238
259.27
257.455
255.807
254.254
252.872
251.686
250.681
249.824
249.152
248.63
248.189
247.872
247.65
247.461
247.315
247.232
247.177
247.127
247.094
247.085
247.083
247.074
247.063
247.058
247.056
247.056
247.058
247.062
247.065
247.064
247.071
247.073
247.036
247.078
269.921
269.641
268.978
267.745
266.203
264.611
262.83
260.811
258.89
257.174
255.476
253.879
252.508
251.321
250.287
249.43
248.768
248.221
247.785
247.473
247.222
247.023
246.903
246.824
246.757
246.697
246.673
246.668
246.659
246.643
246.635
246.633
246.631
246.63
246.632
246.636
246.638
246.635
246.644
246.645
246.61
246.652
269.57
269.153
268.406
267.309
265.942
264.28
262.329
260.399
258.64
256.865
255.07
253.506
252.158
250.942
249.892
249.051
248.374
247.804
247.379
247.054
246.782
246.598
246.49
246.406
246.321
246.267
246.248
246.239
246.222
246.209
246.205
246.203
246.201
246.202
246.203
246.204
246.206
246.202
246.212
246.215
246.18
246.222
269.156
268.734
267.956
266.972
265.599
263.83
261.878
260.117
258.38
256.46
254.674
253.154
251.796
250.558
249.5
248.663
247.976
247.395
246.963
246.627
246.351
246.17
246.061
245.973
245.882
245.835
245.816
245.804
245.784
245.774
245.772
245.769
245.767
245.768
245.768
245.767
245.768
245.766
245.776
245.78
245.747
245.789
268.664
268.392
267.683
266.615
265.155
263.333
261.555
259.851
257.978
256.037
254.326
252.813
251.413
250.163
249.108
248.267
247.56
246.971
246.542
246.199
245.912
245.729
245.621
245.534
245.443
245.395
245.378
245.369
245.35
245.338
245.336
245.335
245.331
245.329
245.328
245.326
245.328
245.328
245.338
245.342
245.309
245.351
268.179
268.019
267.378
266.244
264.666
262.929
261.293
259.514
257.513
255.672
254.007
252.434
251.011
249.771
248.718
247.868
247.14
246.548
246.116
245.757
245.467
245.289
245.181
245.093
244.995
244.953
244.94
244.934
244.912
244.899
244.899
244.899
244.892
244.887
244.886
244.885
244.887
244.887
244.895
244.899
244.865
244.907
267.88
267.604
266.949
265.711
264.225
262.673
260.942
259.005
257.125
255.338
253.611
252.037
250.634
249.369
248.318
247.447
246.706
246.131
245.681
245.302
245.031
244.868
244.741
244.627
244.548
244.517
244.502
244.482
244.459
244.455
244.458
244.453
244.443
244.44
244.44
244.441
244.443
244.443
244.45
244.453
244.419
244.46
267.56
267.127
266.361
265.252
263.942
262.385
260.486
258.544
256.767
255
253.216
251.634
250.239
248.972
247.917
247.024
246.279
245.71
245.241
244.861
244.61
244.431
244.281
244.162
244.105
244.074
244.045
244.015
244.006
244.008
244.006
243.995
243.99
243.989
243.989
243.99
243.993
243.993
244.001
244.004
243.97
244.01
267.04
266.675
265.932
264.96
263.621
261.934
259.991
258.178
256.446
254.578
252.803
251.246
249.831
248.569
247.506
246.596
245.858
245.285
244.8
244.43
244.182
243.978
243.811
243.714
243.659
243.617
243.572
243.552
243.551
243.554
243.545
243.534
243.533
243.534