/*--------------------------------*- C++ -*----------------------------------*\
| =========                 |                                                 |
| \\      /  F ield         | OpenFOAM: The Open Source CFD Toolbox           |
|  \\    /   O peration     | Version:  2406                                  |
|   \\  /    A nd           | Website:  www.openfoam.com                      |
|    \\/     M anipulation  |                                                 |
\*---------------------------------------------------------------------------*/
FoamFile
{
    version     2.0;
    format      ascii;
    arch        "LSB;label=32;scalar=64";
    class       volVectorField;
    location    "0.109";
    object      U;
}
// * * * * * * * * * * * * * * * * * * * * * * * * * * * * * * * * * * * * * //

dimensions      [0 1 -1 0 0 0 0];

internalField   nonuniform List<vector> 
8988
(
(190.657 -0.286051 0)
(190.649 -0.330784 0)
(190.539 -0.238769 0)
(190.454 -0.273467 0)
(190.407 -0.330564 0)
(190.406 -0.354197 0)
(190.407 -0.328557 0)
(190.412 -0.312397 0)
(190.411 -0.314233 0)
(190.412 -0.337209 0)
(190.417 -0.340171 0)
(190.42 -0.337531 0)
(190.42 -0.333748 0)
(190.417 -0.336954 0)
(190.417 -0.339286 0)
(190.417 -0.337329 0)
(190.414 -0.333585 0)
(190.41 -0.329944 0)
(190.404 -0.327566 0)
(190.396 -0.325828 0)
(190.387 -0.323761 0)
(190.375 -0.319813 0)
(190.357 -0.31605 0)
(190.332 -0.309041 0)
(190.302 -0.29967 0)
(190.268 -0.291277 0)
(190.232 -0.281261 0)
(190.193 -0.269341 0)
(190.148 -0.253724 0)
(190.098 -0.237311 0)
(190.044 -0.219354 0)
(189.984 -0.199481 0)
(189.917 -0.17779 0)
(189.844 -0.15466 0)
(189.766 -0.130303 0)
(189.682 -0.106044 0)
(189.594 -0.0798969 0)
(189.503 -0.0560088 0)
(189.412 -0.0317623 0)
(189.333 -0.0129997 0)
(189.28 0.00152836 0)
(189.249 -0.0155726 0)
(190.604 -0.549984 0)
(190.584 -0.690455 0)
(190.386 -0.461779 0)
(190.236 -0.424988 0)
(190.076 -0.63652 0)
(190.013 -0.583453 0)
(190.011 -0.431043 0)
(190.023 -0.465995 0)
(190.067 -0.573477 0)
(190.088 -0.544198 0)
(190.116 -0.484183 0)
(190.135 -0.482681 0)
(190.153 -0.502141 0)
(190.165 -0.491083 0)
(190.188 -0.475815 0)
(190.21 -0.4695 0)
(190.231 -0.462502 0)
(190.249 -0.452151 0)
(190.264 -0.440411 0)
(190.277 -0.427283 0)
(190.287 -0.414041 0)
(190.295 -0.401573 0)
(190.299 -0.388154 0)
(190.297 -0.371829 0)
(190.29 -0.354345 0)
(190.276 -0.338124 0)
(190.259 -0.324307 0)
(190.237 -0.30834 0)
(190.208 -0.28371 0)
(190.167 -0.260551 0)
(190.125 -0.243974 0)
(190.084 -0.228333 0)
(190.04 -0.211644 0)
(189.991 -0.194524 0)
(189.939 -0.177284 0)
(189.884 -0.160435 0)
(189.828 -0.139008 0)
(189.77 -0.116911 0)
(189.715 -0.0902638 0)
(189.664 -0.0665441 0)
(189.634 -0.0392358 0)
(189.62 -0.0229883 0)
(190.862 -0.921814 0)
(190.824 -1.093 0)
(190.636 -0.863895 0)
(190.327 -0.63481 0)
(190.087 -0.641715 0)
(189.874 -0.881693 0)
(189.837 -0.928626 0)
(189.8 -0.713545 0)
(189.805 -0.65528 0)
(189.837 -0.793983 0)
(189.882 -0.785025 0)
(189.913 -0.710422 0)
(189.935 -0.693859 0)
(189.971 -0.704024 0)
(190.012 -0.682396 0)
(190.051 -0.661185 0)
(190.083 -0.642569 0)
(190.109 -0.622416 0)
(190.131 -0.598445 0)
(190.149 -0.572617 0)
(190.166 -0.545757 0)
(190.178 -0.517788 0)
(190.187 -0.488321 0)
(190.194 -0.455991 0)
(190.196 -0.42172 0)
(190.196 -0.387714 0)
(190.194 -0.357697 0)
(190.19 -0.331268 0)
(190.188 -0.305295 0)
(190.185 -0.275195 0)
(190.169 -0.251003 0)
(190.146 -0.225997 0)
(190.119 -0.20839 0)
(190.096 -0.190737 0)
(190.074 -0.178651 0)
(190.055 -0.169326 0)
(190.04 -0.160573 0)
(190.029 -0.150948 0)
(190.021 -0.133322 0)
(190.012 -0.109171 0)
(190.011 -0.0632142 0)
(190.022 -0.0260447 0)
(191.139 -1.21394 0)
(191.101 -1.39379 0)
(190.865 -1.14865 0)
(190.48 -0.996874 0)
(190.101 -0.850686 0)
(189.729 -1.05694 0)
(189.618 -1.26859 0)
(189.515 -1.03428 0)
(189.51 -0.843382 0)
(189.517 -0.980153 0)
(189.579 -1.0585 0)
(189.601 -0.953796 0)
(189.633 -0.881454 0)
(189.679 -0.906756 0)
(189.743 -0.873572 0)
(189.814 -0.840351 0)
(189.868 -0.807493 0)
(189.908 -0.777113 0)
(189.941 -0.743348 0)
(189.972 -0.709151 0)
(190.001 -0.673753 0)
(190.028 -0.635386 0)
(190.053 -0.594248 0)
(190.078 -0.551455 0)
(190.102 -0.508609 0)
(190.128 -0.468106 0)
(190.15 -0.430616 0)
(190.173 -0.396971 0)
(190.202 -0.364285 0)
(190.239 -0.332814 0)
(190.268 -0.302233 0)
(190.291 -0.274432 0)
(190.31 -0.24941 0)
(190.326 -0.228446 0)
(190.346 -0.210886 0)
(190.371 -0.195946 0)
(190.401 -0.181193 0)
(190.433 -0.162614 0)
(190.466 -0.13673 0)
(190.494 -0.10221 0)
(190.52 -0.0582403 0)
(190.544 -0.0157162 0)
(191.346 -1.49781 0)
(191.288 -1.41325 0)
(191.089 -1.34399 0)
(190.655 -1.53931 0)
(190.122 -1.3263 0)
(189.776 -1.13928 0)
(189.442 -1.27876 0)
(189.327 -1.37643 0)
(189.239 -1.22569 0)
(189.219 -1.16036 0)
(189.24 -1.22302 0)
(189.293 -1.17016 0)
(189.394 -1.14689 0)
(189.5 -1.11672 0)
(189.593 -1.08273 0)
(189.661 -1.03885 0)
(189.718 -1.00398 0)
(189.763 -0.961974 0)
(189.805 -0.920584 0)
(189.846 -0.879412 0)
(189.887 -0.837025 0)
(189.928 -0.79015 0)
(189.97 -0.738161 0)
(190.014 -0.685019 0)
(190.06 -0.633176 0)
(190.11 -0.580863 0)
(190.168 -0.525714 0)
(190.233 -0.468325 0)
(190.296 -0.41479 0)
(190.348 -0.367835 0)
(190.409 -0.328338 0)
(190.474 -0.29259 0)
(190.54 -0.260793 0)
(190.605 -0.232248 0)
(190.671 -0.206612 0)
(190.738 -0.184433 0)
(190.806 -0.166378 0)
(190.873 -0.145651 0)
(190.936 -0.118978 0)
(190.987 -0.0812595 0)
(191.038 -0.0474066 0)
(191.06 0.00149963 0)
(191.592 -1.68504 0)
(191.556 -1.54371 0)
(191.346 -1.64785 0)
(190.906 -1.66774 0)
(190.34 -1.82252 0)
(189.834 -1.62274 0)
(189.507 -1.38641 0)
(189.231 -1.49326 0)
(189.122 -1.64238 0)
(189.05 -1.52986 0)
(189.058 -1.41237 0)
(189.139 -1.46001 0)
(189.282 -1.42678 0)
(189.414 -1.37767 0)
(189.521 -1.35109 0)
(189.596 -1.30462 0)
(189.66 -1.26828 0)
(189.711 -1.22081 0)
(189.761 -1.17215 0)
(189.812 -1.12386 0)
(189.867 -1.07483 0)
(189.927 -1.01883 0)
(189.992 -0.955361 0)
(190.064 -0.893237 0)
(190.141 -0.837007 0)
(190.224 -0.779563 0)
(190.315 -0.714177 0)
(190.409 -0.643721 0)
(190.504 -0.577877 0)
(190.601 -0.518059 0)
(190.699 -0.460539 0)
(190.802 -0.40625 0)
(190.904 -0.355514 0)
(191.005 -0.307779 0)
(191.101 -0.263942 0)
(191.191 -0.223627 0)
(191.276 -0.186085 0)
(191.353 -0.151327 0)
(191.423 -0.117971 0)
(191.477 -0.0794465 0)
(191.53 -0.0469796 0)
(191.55 0.0111445 0)
(191.973 -1.98016 0)
(191.924 -2.13458 0)
(191.748 -2.01031 0)
(191.281 -1.77598 0)
(190.687 -1.89043 0)
(190.11 -2.07374 0)
(189.653 -1.93688 0)
(189.367 -1.74334 0)
(189.129 -1.81781 0)
(189.064 -1.88233 0)
(189.079 -1.78155 0)
(189.196 -1.78303 0)
(189.361 -1.77977 0)
(189.505 -1.72248 0)
(189.621 -1.68565 0)
(189.694 -1.63888 0)
(189.761 -1.616 0)
(189.817 -1.57353 0)
(189.872 -1.52464 0)
(189.931 -1.47443 0)
(189.994 -1.42715 0)
(190.063 -1.37446 0)
(190.14 -1.3114 0)
(190.229 -1.24667 0)
(190.325 -1.18555 0)
(190.427 -1.12188 0)
(190.536 -1.04993 0)
(190.647 -0.973954 0)
(190.762 -0.898445 0)
(190.884 -0.822956 0)
(191.008 -0.743863 0)
(191.141 -0.665193 0)
(191.275 -0.587613 0)
(191.403 -0.51188 0)
(191.524 -0.439222 0)
(191.635 -0.369391 0)
(191.738 -0.304984 0)
(191.827 -0.247799 0)
(191.9 -0.195753 0)
(191.953 -0.140765 0)
(192.01 -0.0874301 0)
(192.028 -0.00555495 0)
(192.546 -2.40886 0)
(192.512 -2.4293 0)
(192.229 -2.2545 0)
(191.806 -2.38315 0)
(191.173 -2.11721 0)
(190.57 -2.10389 0)
(189.997 -2.29929 0)
(189.613 -2.26579 0)
(189.374 -2.1229 0)
(189.247 -2.16123 0)
(189.285 -2.16383 0)
(189.415 -2.14334 0)
(189.585 -2.18077 0)
(189.737 -2.1141 0)
(189.86 -2.09589 0)
(189.949 -2.07311 0)
(190.018 -2.0514 0)
(190.073 -2.02164 0)
(190.131 -1.97858 0)
(190.192 -1.93404 0)
(190.258 -1.89479 0)
(190.329 -1.85095 0)
(190.408 -1.79762 0)
(190.497 -1.74194 0)
(190.592 -1.68661 0)
(190.693 -1.62571 0)
(190.799 -1.55575 0)
(190.914 -1.48183 0)
(191.041 -1.40409 0)
(191.174 -1.31787 0)
(191.312 -1.22161 0)
(191.459 -1.11941 0)
(191.609 -1.01227 0)
(191.758 -0.901949 0)
(191.901 -0.790196 0)
(192.04 -0.679314 0)
(192.167 -0.571247 0)
(192.278 -0.46989 0)
(192.368 -0.374972 0)
(192.431 -0.278942 0)
(192.503 -0.1793 0)
(192.51 -0.0471778 0)
(193.293 -2.58671 0)
(193.243 -2.44139 0)
(193.02 -2.57069 0)
(192.488 -2.65092 0)
(191.836 -2.70528 0)
(191.117 -2.50008 0)
(190.545 -2.41154 0)
(190.04 -2.57435 0)
(189.737 -2.61139 0)
(189.561 -2.50121 0)
(189.535 -2.50896 0)
(189.661 -2.56122 0)
(189.846 -2.54978 0)
(190.025 -2.54413 0)
(190.175 -2.53488 0)
(190.282 -2.54646 0)
(190.352 -2.51972 0)
(190.407 -2.51678 0)
(190.457 -2.49836 0)
(190.516 -2.47726 0)
(190.581 -2.4509 0)
(190.653 -2.42738 0)
(190.731 -2.40208 0)
(190.818 -2.36728 0)
(190.913 -2.32225 0)
(191.017 -2.26828 0)
(191.128 -2.20623 0)
(191.247 -2.13619 0)
(191.376 -2.05649 0)
(191.512 -1.96288 0)
(191.655 -1.85429 0)
(191.805 -1.73202 0)
(191.959 -1.59659 0)
(192.117 -1.4504 0)
(192.274 -1.29547 0)
(192.436 -1.1362 0)
(192.59 -0.973898 0)
(192.728 -0.811086 0)
(192.844 -0.64736 0)
(192.926 -0.476163 0)
(193.016 -0.297085 0)
(193.012 -0.0894277 0)
(194.059 -2.9692 0)
(194.028 -3.16229 0)
(193.772 -2.90789 0)
(193.223 -2.79884 0)
(192.513 -2.74307 0)
(191.666 -2.91381 0)
(191.018 -2.95318 0)
(190.517 -2.82545 0)
(190.185 -2.84446 0)
(190.038 -2.88468 0)
(190.025 -2.88567 0)
(190.123 -2.9215 0)
(190.295 -2.89627 0)
(190.478 -2.92909 0)
(190.639 -2.95703 0)
(190.759 -2.94704 0)
(190.839 -2.9604 0)
(190.899 -2.96395 0)
(190.945 -2.98613 0)
(190.998 -2.99577 0)
(191.056 -2.99244 0)
(191.116 -2.99436 0)
(191.181 -2.99654 0)
(191.253 -2.98868 0)
(191.333 -2.9666 0)
(191.423 -2.93386 0)
(191.522 -2.89149 0)
(191.63 -2.83621 0)
(191.75 -2.76337 0)
(191.879 -2.6705 0)
(192.02 -2.55819 0)
(192.17 -2.42672 0)
(192.325 -2.27526 0)
(192.487 -2.10457 0)
(192.654 -1.9147 0)
(192.831 -1.70847 0)
(193.008 -1.48639 0)
(193.171 -1.24837 0)
(193.317 -0.994993 0)
(193.427 -0.724312 0)
(193.546 -0.443424 0)
(193.54 -0.135845 0)
(194.969 -3.24541 0)
(194.906 -3.09435 0)
(194.662 -3.14787 0)
(194.029 -3.35976 0)
(193.273 -3.24021 0)
(192.449 -3.01823 0)
(191.646 -3.08586 0)
(191.064 -3.28502 0)
(190.67 -3.24261 0)
(190.479 -3.1677 0)
(190.478 -3.23046 0)
(190.626 -3.28148 0)
(190.815 -3.28932 0)
(191.012 -3.2783 0)
(191.174 -3.34253 0)
(191.305 -3.33365 0)
(191.396 -3.37201 0)
(191.468 -3.37804 0)
(191.518 -3.40946 0)
(191.572 -3.42284 0)
(191.621 -3.44419 0)
(191.674 -3.46016 0)
(191.726 -3.48063 0)
(191.782 -3.48952 0)
(191.842 -3.49158 0)
(191.909 -3.48868 0)
(191.986 -3.47641 0)
(192.075 -3.44808 0)
(192.177 -3.39912 0)
(192.293 -3.32643 0)
(192.424 -3.2291 0)
(192.567 -3.1062 0)
(192.72 -2.95518 0)
(192.884 -2.77366 0)
(193.058 -2.55907 0)
(193.242 -2.31113 0)
(193.431 -2.03038 0)
(193.609 -1.71722 0)
(193.776 -1.37427 0)
(193.911 -1.00251 0)
(194.061 -0.61329 0)
(194.053 -0.188788 0)
(195.947 -3.40011 0)
(195.87 -3.47791 0)
(195.569 -3.52347 0)
(195.018 -3.32551 0)
(194.076 -3.56511 0)
(193.207 -3.59711 0)
(192.365 -3.40708 0)
(191.674 -3.38536 0)
(191.255 -3.55611 0)
(191.083 -3.53411 0)
(191.085 -3.50989 0)
(191.218 -3.59263 0)
(191.419 -3.59024 0)
(191.616 -3.59807 0)
(191.787 -3.65507 0)
(191.928 -3.67164 0)
(192.033 -3.68662 0)
(192.106 -3.7282 0)
(192.166 -3.74102 0)
(192.212 -3.76686 0)
(192.263 -3.78142 0)
(192.309 -3.80711 0)
(192.357 -3.83227 0)
(192.407 -3.84734 0)
(192.458 -3.85734 0)
(192.512 -3.86835 0)
(192.571 -3.87584 0)
(192.638 -3.87138 0)
(192.715 -3.85203 0)
(192.805 -3.81432 0)
(192.91 -3.75291 0)
(193.033 -3.66127 0)
(193.173 -3.53108 0)
(193.329 -3.35454 0)
(193.5 -3.12686 0)
(193.68 -2.84781 0)
(193.865 -2.52122 0)
(194.049 -2.1484 0)
(194.227 -1.73063 0)
(194.371 -1.27016 0)
(194.536 -0.780796 0)
(194.52 -0.245973 0)
(196.979 -3.88971 0)
(196.935 -4.05536 0)
(196.59 -3.7984 0)
(195.959 -3.65878 0)
(195.102 -3.58135 0)
(194.028 -3.75867 0)
(193.186 -3.88566 0)
(192.461 -3.73136 0)
(191.96 -3.69129 0)
(191.758 -3.81067 0)
(191.788 -3.7727 0)
(191.923 -3.86798 0)
(192.13 -3.83717 0)
(192.33 -3.83401 0)
(192.495 -3.91626 0)
(192.641 -3.93887 0)
(192.748 -3.93655 0)
(192.824 -3.97518 0)
(192.884 -4.00278 0)
(192.932 -4.01812 0)
(192.976 -4.03459 0)
(193.02 -4.05717 0)
(193.067 -4.07956 0)
(193.115 -4.09714 0)
(193.166 -4.10599 0)
(193.219 -4.11459 0)
(193.275 -4.1182 0)
(193.334 -4.11695 0)
(193.398 -4.10916 0)
(193.467 -4.09255 0)
(193.543 -4.06003 0)
(193.63 -4.00247 0)
(193.731 -3.90659 0)
(193.853 -3.75779 0)
(193.997 -3.5446 0)
(194.157 -3.262 0)
(194.323 -2.91311 0)
(194.496 -2.50139 0)
(194.67 -2.03022 0)
(194.811 -1.50332 0)
(194.984 -0.931763 0)
(194.951 -0.295596 0)
(198.115 -4.16108 0)
(198.027 -3.9914 0)
(197.686 -4.05916 0)
(197.017 -4.23009 0)
(196.046 -3.93912 0)
(195.093 -3.82772 0)
(194.061 -4.04258 0)
(193.327 -4.11281 0)
(192.834 -3.95538 0)
(192.623 -3.99155 0)
(192.656 -3.99823 0)
(192.789 -4.10259 0)
(192.973 -4.06169 0)
(193.16 -4.0275 0)
(193.315 -4.11635 0)
(193.455 -4.12816 0)
(193.559 -4.13465 0)
(193.638 -4.1637 0)
(193.698 -4.187 0)
(193.745 -4.20311 0)
(193.787 -4.21211 0)
(193.826 -4.2316 0)
(193.87 -4.24868 0)
(193.917 -4.26145 0)
(193.965 -4.27113 0)
(194.016 -4.27292 0)
(194.069 -4.26992 0)
(194.124 -4.26057 0)
(194.183 -4.24398 0)
(194.243 -4.2184 0)
(194.304 -4.18095 0)
(194.364 -4.12613 0)
(194.427 -4.04548 0)
(194.497 -3.92756 0)
(194.577 -3.7571 0)
(194.674 -3.51786 0)
(194.794 -3.19341 0)
(194.914 -2.78125 0)
(195.062 -2.28589 0)
(195.183 -1.70831 0)
(195.347 -1.06475 0)
(195.288 -0.342168 0)
(199.299 -4.25464 0)
(199.191 -4.10062 0)
(198.83 -4.32252 0)
(198.113 -4.4202 0)
(197.165 -4.45789 0)
(196.08 -4.21169 0)
(195.084 -4.12505 0)
(194.299 -4.33689 0)
(193.852 -4.31597 0)
(193.659 -4.21843 0)
(193.658 -4.22925 0)
(193.765 -4.33283 0)
(193.914 -4.26871 0)
(194.072 -4.27348 0)
(194.228 -4.3254 0)
(194.362 -4.32424 0)
(194.466 -4.32162 0)
(194.543 -4.35585 0)
(194.604 -4.36316 0)
(194.65 -4.36927 0)
(194.689 -4.3828 0)
(194.728 -4.38615 0)
(194.766 -4.39516 0)
(194.807 -4.4021 0)
(194.85 -4.40263 0)
(194.893 -4.39607 0)
(194.936 -4.3859 0)
(194.979 -4.3689 0)
(195.023 -4.33965 0)
(195.067 -4.29509 0)
(195.107 -4.23677 0)
(195.145 -4.16589 0)
(195.18 -4.07174 0)
(195.213 -3.95169 0)
(195.242 -3.79973 0)
(195.271 -3.59969 0)
(195.3 -3.32206 0)
(195.366 -2.955 0)
(195.43 -2.47125 0)
(195.499 -1.87627 0)
(195.637 -1.1814 0)
(195.552 -0.387408 0)
(200.377 -4.56013 0)
(200.275 -4.67863 0)
(199.944 -4.6479 0)
(199.265 -4.41694 0)
(198.191 -4.61254 0)
(197.157 -4.67128 0)
(196.189 -4.45712 0)
(195.446 -4.47038 0)
(195.005 -4.58677 0)
(194.796 -4.47969 0)
(194.753 -4.51186 0)
(194.84 -4.53195 0)
(194.971 -4.46664 0)
(195.103 -4.53986 0)
(195.249 -4.54708 0)
(195.369 -4.50418 0)
(195.464 -4.51962 0)
(195.54 -4.53514 0)
(195.595 -4.54173 0)
(195.636 -4.53544 0)
(195.67 -4.53525 0)
(195.7 -4.54089 0)
(195.73 -4.5435 0)
(195.762 -4.53773 0)
(195.792 -4.52305 0)
(195.823 -4.50923 0)
(195.852 -4.48415 0)
(195.878 -4.45313 0)
(195.902 -4.40884 0)
(195.924 -4.3479 0)
(195.942 -4.26781 0)
(195.956 -4.16973 0)
(195.963 -4.05147 0)
(195.963 -3.91177 0)
(195.952 -3.74628 0)
(195.929 -3.5476 0)
(195.895 -3.29993 0)
(195.864 -2.96754 0)
(195.861 -2.5192 0)
(195.831 -1.94793 0)
(195.902 -1.25201 0)
(195.775 -0.428977 0)
(201.66 -5.03792 0)
(201.604 -4.98783 0)
(201.158 -4.84019 0)
(200.417 -4.89929 0)
(199.428 -4.66852 0)
(198.284 -4.71728 0)
(197.314 -4.83905 0)
(196.581 -4.75216 0)
(196.116 -4.70434 0)
(195.896 -4.7255 0)
(195.864 -4.79822 0)
(195.934 -4.70991 0)
(196.054 -4.71216 0)
(196.188 -4.79252 0)
(196.311 -4.73922 0)
(196.415 -4.72919 0)
(196.5 -4.75954 0)
(196.567 -4.74829 0)
(196.614 -4.74414 0)
(196.649 -4.74308 0)
(196.677 -4.73079 0)
(196.701 -4.72103 0)
(196.721 -4.71069 0)
(196.74 -4.69479 0)
(196.757 -4.66993 0)
(196.774 -4.63915 0)
(196.788 -4.60162 0)
(196.796 -4.55182 0)
(196.8 -4.4862 0)
(196.799 -4.40293 0)
(196.792 -4.30065 0)
(196.78 -4.17857 0)
(196.76 -4.03358 0)
(196.729 -3.86397 0)
(196.686 -3.66747 0)
(196.626 -3.43812 0)
(196.544 -3.16524 0)
(196.45 -2.83567 0)
(196.366 -2.41774 0)
(196.271 -1.8785 0)
(196.251 -1.21409 0)
(196.07 -0.444866 0)
(203.004 -5.06075 0)
(202.835 -4.8891 0)
(202.434 -5.08928 0)
(201.655 -5.22705 0)
(200.604 -5.17217 0)
(199.434 -4.90639 0)
(198.338 -4.86911 0)
(197.564 -5.06324 0)
(197.125 -4.96498 0)
(196.927 -4.93578 0)
(196.911 -4.98161 0)
(196.984 -4.92631 0)
(197.096 -4.96459 0)
(197.229 -4.9915 0)
(197.345 -4.93268 0)
(197.444 -4.95486 0)
(197.528 -4.9848 0)
(197.588 -4.9422 0)
(197.635 -4.91937 0)
(197.666 -4.92306 0)
(197.688 -4.90669 0)
(197.705 -4.8798 0)
(197.717 -4.85478 0)
(197.725 -4.82566 0)
(197.73 -4.78882 0)
(197.732 -4.74283 0)
(197.729 -4.6859 0)
(197.721 -4.61639 0)
(197.706 -4.5313 0)
(197.685 -4.42913 0)
(197.656 -4.30733 0)
(197.619 -4.16226 0)
(197.572 -3.98935 0)
(197.513 -3.78591 0)
(197.44 -3.55043 0)
(197.351 -3.2785 0)
(197.238 -2.96263 0)
(197.108 -2.59639 0)
(196.968 -2.17538 0)
(196.821 -1.67987 0)
(196.769 -1.08444 0)
(196.576 -0.429758 0)
(203.955 -5.37926 0)
(203.838 -5.48875 0)
(203.446 -5.40878 0)
(202.667 -5.20484 0)
(201.644 -5.3075 0)
(200.532 -5.31361 0)
(199.532 -5.19221 0)
(198.758 -5.18378 0)
(198.251 -5.19046 0)
(197.996 -5.1466 0)
(197.921 -5.1635 0)
(197.959 -5.14241 0)
(198.062 -5.14288 0)
(198.187 -5.18168 0)
(198.31 -5.13395 0)
(198.422 -5.12566 0)
(198.507 -5.15157 0)
(198.57 -5.11416 0)
(198.619 -5.07659 0)
(198.652 -5.06721 0)
(198.671 -5.04375 0)
(198.682 -5.00532 0)
(198.687 -4.96407 0)
(198.686 -4.9176 0)
(198.682 -4.86617 0)
(198.672 -4.80191 0)
(198.656 -4.72368 0)
(198.636 -4.63259 0)
(198.607 -4.52702 0)
(198.571 -4.40429 0)
(198.525 -4.26036 0)
(198.467 -4.08994 0)
(198.398 -3.88808 0)
(198.314 -3.65138 0)
(198.216 -3.37807 0)
(198.105 -3.06588 0)
(197.976 -2.7119 0)
(197.83 -2.31496 0)
(197.678 -1.87841 0)
(197.516 -1.40955 0)
(197.408 -0.888292 0)
(197.22 -0.384838 0)
(205.107 -5.77884 0)
(205.024 -5.70854 0)
(204.58 -5.64121 0)
(203.847 -5.61635 0)
(202.847 -5.33944 0)
(201.642 -5.38777 0)
(200.6 -5.53035 0)
(199.778 -5.36191 0)
(199.24 -5.32878 0)
(198.956 -5.33267 0)
(198.849 -5.34156 0)
(198.865 -5.32039 0)
(198.963 -5.28813 0)
(199.095 -5.31421 0)
(199.232 -5.28988 0)
(199.356 -5.25551 0)
(199.455 -5.24712 0)
(199.525 -5.2155 0)
(199.575 -5.17675 0)
(199.61 -5.14472 0)
(199.628 -5.1028 0)
(199.633 -5.05044 0)
(199.633 -4.9946 0)
(199.626 -4.92942 0)
(199.613 -4.85629 0)
(199.595 -4.77116 0)
(199.57 -4.67298 0)
(199.541 -4.56084 0)
(199.504 -4.43248 0)
(199.457 -4.28493 0)
(199.398 -4.11458 0)
(199.326 -3.91655 0)
(199.24 -3.68691 0)
(199.141 -3.42269 0)
(199.027 -3.12191 0)
(198.905 -2.78387 0)
(198.77 -2.40885 0)
(198.625 -1.99969 0)
(198.478 -1.56416 0)
(198.339 -1.12048 0)
(198.23 -0.671585 0)
(198.088 -0.33615 0)
(206.263 -5.92799 0)
(206.118 -5.68742 0)
(205.754 -5.87387 0)
(205.031 -5.96087 0)
(203.932 -5.75168 0)
(202.85 -5.50289 0)
(201.691 -5.62038 0)
(200.802 -5.60944 0)
(200.187 -5.49854 0)
(199.834 -5.4857 0)
(199.704 -5.48137 0)
(199.724 -5.45668 0)
(199.837 -5.43155 0)
(199.99 -5.39885 0)
(200.142 -5.38111 0)
(200.274 -5.35172 0)
(200.377 -5.29348 0)
(200.454 -5.24995 0)
(200.507 -5.21266 0)
(200.54 -5.1501 0)
(200.558 -5.07515 0)
(200.561 -5.00102 0)
(200.557 -4.92688 0)
(200.545 -4.84136 0)
(200.527 -4.7425 0)
(200.504 -4.63161 0)
(200.474 -4.51126 0)
(200.437 -4.37703 0)
(200.393 -4.22237 0)
(200.337 -4.04533 0)
(200.269 -3.84632 0)
(200.189 -3.62292 0)
(200.097 -3.37175 0)
(199.992 -3.0901 0)
(199.874 -2.77586 0)
(199.752 -2.4297 0)
(199.624 -2.05521 0)
(199.493 -1.66089 0)
(199.37 -1.2601 0)
(199.285 -0.878844 0)
(199.196 -0.499642 0)
(199.125 -0.282573 0)
(207.449 -6.25494 0)
(207.359 -6.33985 0)
(206.986 -6.05616 0)
(206.208 -5.89918 0)
(205.221 -5.75572 0)
(203.936 -5.87732 0)
(202.799 -5.90122 0)
(201.728 -5.67772 0)
(201.016 -5.60056 0)
(200.648 -5.65958 0)
(200.534 -5.58683 0)
(200.58 -5.54135 0)
(200.723 -5.52968 0)
(200.893 -5.45567 0)
(201.056 -5.41784 0)
(201.192 -5.38034 0)
(201.293 -5.29233 0)
(201.372 -5.22274 0)
(201.427 -5.16519 0)
(201.457 -5.08068 0)
(201.474 -4.98199 0)
(201.476 -4.88348 0)
(201.47 -4.78446 0)
(201.455 -4.67279 0)
(201.434 -4.5454 0)
(201.408 -4.40623 0)
(201.375 -4.25887 0)
(201.334 -4.09731 0)
(201.284 -3.91511 0)
(201.223 -3.71292 0)
(201.152 -3.49213 0)
(201.071 -3.2498 0)
(200.979 -2.98365 0)
(200.88 -2.69403 0)
(200.769 -2.38073 0)
(200.66 -2.04713 0)
(200.55 -1.70043 0)
(200.451 -1.35293 0)
(200.362 -1.01576 0)
(200.339 -0.71802 0)
(200.258 -0.403918 0)
(200.267 -0.233369 0)
(208.702 -6.42118 0)
(208.566 -6.23645 0)
(208.154 -6.27351 0)
(207.394 -6.33159 0)
(206.293 -6.08487 0)
(205.061 -5.92532 0)
(203.792 -5.99228 0)
(202.685 -5.86282 0)
(201.912 -5.77131 0)
(201.478 -5.75198 0)
(201.354 -5.68143 0)
(201.444 -5.63517 0)
(201.628 -5.59621 0)
(201.813 -5.50587 0)
(201.979 -5.45152 0)
(202.111 -5.38795 0)
(202.207 -5.27729 0)
(202.285 -5.17847 0)
(202.34 -5.08941 0)
(202.371 -4.98098 0)
(202.385 -4.85601 0)
(202.384 -4.72561 0)
(202.379 -4.59657 0)
(202.365 -4.4573 0)
(202.343 -4.30509 0)
(202.316 -4.14068 0)
(202.281 -3.96416 0)
(202.238 -3.77133 0)
(202.188 -3.56109 0)
(202.128 -3.33755 0)
(202.06 -3.10151 0)
(201.984 -2.849 0)
(201.902 -2.57858 0)
(201.817 -2.29385 0)
(201.726 -1.99854 0)
(201.643 -1.70032 0)
(201.566 -1.40625 0)
(201.509 -1.12443 0)
(201.454 -0.853327 0)
(201.471 -0.620142 0)
(201.385 -0.36244 0)
(201.451 -0.191483 0)
(209.826 -6.66906 0)
(209.696 -6.38636 0)
(209.245 -6.57868 0)
(208.447 -6.62022 0)
(207.318 -6.36376 0)
(206.076 -6.03816 0)
(204.748 -6.14046 0)
(203.638 -6.15907 0)
(202.824 -5.93047 0)
(202.383 -5.85816 0)
(202.285 -5.83604 0)
(202.393 -5.74256 0)
(202.58 -5.63586 0)
(202.766 -5.56666 0)
(202.92 -5.48165 0)
(203.043 -5.37397 0)
(203.136 -5.26029 0)
(203.207 -5.14217 0)
(203.259 -5.01836 0)
(203.291 -4.88719 0)
(203.303 -4.74545 0)
(203.295 -4.58959 0)
(203.288 -4.42562 0)
(203.279 -4.25308 0)
(203.26 -4.07086 0)
(203.235 -3.87915 0)
(203.203 -3.67633 0)
(203.164 -3.46067 0)
(203.12 -3.23229 0)
(203.07 -2.99405 0)
(203.012 -2.74794 0)
(202.952 -2.49402 0)
(202.889 -2.23321 0)
(202.831 -1.97055 0)
(202.771 -1.71026 0)
(202.725 -1.45911 0)
(202.682 -1.21763 0)
(202.656 -0.988489 0)
(202.62 -0.762037 0)
(202.649 -0.559939 0)
(202.562 -0.335495 0)
(202.652 -0.163447 0)
(210.729 -7.01249 0)
(210.667 -6.84836 0)
(210.202 -6.82607 0)
(209.397 -6.76763 0)
(208.314 -6.35493 0)
(207.029 -6.23628 0)
(205.778 -6.45763 0)
(204.625 -6.3441 0)
(203.805 -6.01991 0)
(203.381 -6.01699 0)
(203.311 -5.97865 0)
(203.399 -5.82473 0)
(203.559 -5.7026 0)
(203.723 -5.64755 0)
(203.861 -5.53571 0)
(203.97 -5.38546 0)
(204.061 -5.25601 0)
(204.13 -5.12581 0)
(204.18 -4.97935 0)
(204.212 -4.82215 0)
(204.224 -4.6569 0)
(204.216 -4.48088 0)
(204.207 -4.29661 0)
(204.204 -4.10742 0)
(204.194 -3.90555 0)
(204.178 -3.69053 0)
(204.156 -3.46498 0)
(204.13 -3.23271 0)
(204.101 -2.99492 0)
(204.068 -2.75281 0)
(204.033 -2.50849 0)
(203.999 -2.26445 0)
(203.965 -2.02278 0)
(203.939 -1.78829 0)
(203.909 -1.56135 0)
(203.891 -1.34413 0)
(203.866 -1.13262 0)
(203.856 -0.929306 0)
(203.83 -0.724543 0)
(203.859 -0.534223 0)
(203.778 -0.322448 0)
(203.879 -0.148334 0)
(211.692 -6.95834 0)
(211.564 -6.92712 0)
(211.17 -6.89015 0)
(210.411 -6.80763 0)
(209.306 -6.75839 0)
(207.991 -6.57293 0)
(206.745 -6.38259 0)
(205.655 -6.34224 0)
(204.858 -6.23022 0)
(204.425 -6.09429 0)
(204.292 -6.03959 0)
(204.353 -5.9152 0)
(204.498 -5.80124 0)
(204.649 -5.73823 0)
(204.775 -5.60854 0)
(204.882 -5.46243 0)
(204.971 -5.33072 0)
(205.039 -5.18391 0)
(205.091 -5.01964 0)
(205.129 -4.84661 0)
(205.147 -4.66388 0)
(205.149 -4.46957 0)
(205.147 -4.26851 0)
(205.154 -4.06486 0)
(205.16 -3.85289 0)
(205.16 -3.62574 0)
(205.155 -3.38834 0)
(205.149 -3.14858 0)
(205.144 -2.90933 0)
(205.138 -2.67107 0)
(205.13 -2.43418 0)
(205.124 -2.20044 0)
(205.117 -1.97131 0)
(205.115 -1.751 0)
(205.107 -1.53744 0)
(205.107 -1.33126 0)
(205.095 -1.12818 0)
(205.095 -0.931731 0)
(205.079 -0.73304 0)
(205.11 -0.542231 0)
(205.036 -0.328632 0)
(205.145 -0.143753 0)
(212.866 -7.09912 0)
(212.696 -7.29768 0)
(212.244 -7.06049 0)
(211.467 -6.82469 0)
(210.341 -7.04123 0)
(209.042 -6.93277 0)
(207.757 -6.53669 0)
(206.591 -6.4599 0)
(205.752 -6.44082 0)
(205.288 -6.2885 0)
(205.164 -6.20837 0)
(205.243 -6.09236 0)
(205.396 -5.98101 0)
(205.549 -5.88344 0)
(205.677 -5.74941 0)
(205.787 -5.61089 0)
(205.878 -5.46587 0)
(205.952 -5.3068 0)
(206.013 -5.14214 0)
(206.059 -4.9676 0)
(206.089 -4.77586 0)
(206.105 -4.57114 0)
(206.115 -4.36183 0)
(206.136 -4.15095 0)
(206.161 -3.93044 0)
(206.182 -3.70038 0)
(206.2 -3.46516 0)
(206.218 -3.2255 0)
(206.239 -2.98593 0)
(206.261 -2.74663 0)
(206.279 -2.50829 0)
(206.301 -2.27433 0)
(206.317 -2.04586 0)
(206.337 -1.82552 0)
(206.347 -1.60955 0)
(206.364 -1.39845 0)
(206.367 -1.1884 0)
(206.378 -0.983892 0)
(206.374 -0.777924 0)
(206.411 -0.575497 0)
(206.343 -0.350108 0)
(206.46 -0.147103 0)
(213.679 -7.51599 0)
(213.609 -7.52935 0)
(213.15 -7.29742 0)
(212.408 -7.23121 0)
(211.342 -7.05052 0)
(210.042 -7.00039 0)
(208.723 -6.92219 0)
(207.562 -6.71693 0)
(206.737 -6.59038 0)
(206.258 -6.53832 0)
(206.115 -6.42254 0)
(206.178 -6.30506 0)
(206.319 -6.20873 0)
(206.466 -6.08866 0)
(206.597 -5.9595 0)
(206.711 -5.82561 0)
(206.807 -5.67124 0)
(206.893 -5.51108 0)
(206.966 -5.34666 0)
(207.024 -5.16769 0)
(207.067 -4.97265 0)
(207.1 -4.76931 0)
(207.125 -4.56134 0)
(207.159 -4.34737 0)
(207.202 -4.12394 0)
(207.245 -3.89268 0)
(207.284 -3.65735 0)
(207.325 -3.42056 0)
(207.368 -3.18069 0)
(207.414 -2.93724 0)
(207.457 -2.69253 0)
(207.504 -2.45122 0)
(207.544 -2.21284 0)
(207.588 -1.97917 0)
(207.619 -1.74737 0)
(207.657 -1.51979 0)
(207.679 -1.29256 0)
(207.705 -1.06929 0)
(207.716 -0.84581 0)
(207.763 -0.620976 0)
(207.699 -0.379653 0)
(207.825 -0.154903 0)
(214.709 -7.552 0)
(214.545 -7.43646 0)
(214.123 -7.54444 0)
(213.406 -7.50828 0)
(212.336 -7.39605 0)
(211.003 -7.19952 0)
(209.738 -6.95457 0)
(208.599 -7.00511 0)
(207.752 -6.87957 0)
(207.299 -6.71403 0)
(207.148 -6.62573 0)
(207.186 -6.53872 0)
(207.305 -6.42684 0)
(207.442 -6.30669 0)
(207.575 -6.18983 0)
(207.695 -6.05516 0)
(207.803 -5.90425 0)
(207.9 -5.75176 0)
(207.982 -5.59208 0)
(208.049 -5.41572 0)
(208.104 -5.2254 0)
(208.148 -5.02928 0)
(208.187 -4.82826 0)
(208.229 -4.61426 0)
(208.286 -4.39598 0)
(208.344 -4.16812 0)
(208.401 -3.93482 0)
(208.462 -3.6965 0)
(208.525 -3.45058 0)
(208.592 -3.19912 0)
(208.658 -2.94613 0)
(208.728 -2.69452 0)
(208.791 -2.44143 0)
(208.859 -2.18771 0)
(208.913 -1.93125 0)
(208.974 -1.67795 0)
(209.021 -1.42621 0)
(209.066 -1.17767 0)
(209.093 -0.92737 0)
(209.155 -0.676613 0)
(209.099 -0.409473 0)
(209.233 -0.164616 0)
(215.795 -7.96662 0)
(215.698 -7.75952 0)
(215.262 -7.80759 0)
(214.488 -7.75579 0)
(213.36 -7.41815 0)
(212.076 -7.25688 0)
(210.798 -7.35617 0)
(209.661 -7.18198 0)
(208.877 -7.00417 0)
(208.425 -6.94298 0)
(208.241 -6.85335 0)
(208.236 -6.74805 0)
(208.333 -6.65416 0)
(208.47 -6.546 0)
(208.612 -6.43055 0)
(208.745 -6.30395 0)
(208.863 -6.16296 0)
(208.968 -6.01829 0)
(209.059 -5.86776 0)
(209.135 -5.70169 0)
(209.199 -5.52007 0)
(209.259 -5.33096 0)
(209.302 -5.12816 0)
(209.347 -4.92264 0)
(209.415 -4.70642 0)
(209.486 -4.48059 0)
(209.556 -4.24748 0)
(209.632 -4.00652 0)
(209.71 -3.75571 0)
(209.795 -3.49752 0)
(209.881 -3.23379 0)
(209.972 -2.96699 0)
(210.055 -2.6961 0)
(210.146 -2.42208 0)
(210.223 -2.14063 0)
(210.308 -1.85823 0)
(210.381 -1.57701 0)
(210.449 -1.29801 0)
(210.491 -1.01718 0)
(210.572 -0.739845 0)
(210.525 -0.436621 0)
(210.667 -0.17299 0)
(217.126 -8.12267 0)
(216.998 -8.32972 0)
(216.617 -7.88239 0)
(215.796 -7.58676 0)
(214.685 -7.49636 0)
(213.354 -7.73289 0)
(212.058 -7.63262 0)
(210.842 -7.22303 0)
(209.972 -7.14925 0)
(209.524 -7.17442 0)
(209.34 -7.04377 0)
(209.336 -6.96592 0)
(209.441 -6.86288 0)
(209.59 -6.76482 0)
(209.743 -6.6859 0)
(209.884 -6.55963 0)
(210.011 -6.42 0)
(210.125 -6.29584 0)
(210.223 -6.1521 0)
(210.304 -5.98296 0)
(210.38 -5.81259 0)
(210.441 -5.63199 0)
(210.482 -5.43932 0)
(210.525 -5.23697 0)
(210.596 -5.02526 0)
(210.675 -4.80492 0)
(210.754 -4.57238 0)
(210.84 -4.32683 0)
(210.931 -4.0709 0)
(211.029 -3.80694 0)
(211.13 -3.53238 0)
(211.238 -3.24868 0)
(211.34 -2.95788 0)
(211.45 -2.66281 0)
(211.547 -2.35872 0)
(211.653 -2.05065 0)
(211.749 -1.74104 0)
(211.838 -1.43044 0)
(211.891 -1.11534 0)
(211.992 -0.807127 0)
(211.957 -0.467236 0)
(212.105 -0.180939 0)
(218.679 -8.24344 0)
(218.538 -8.51502 0)
(218.145 -8.03173 0)
(217.358 -7.71529 0)
(216.138 -7.79642 0)
(214.853 -8.026 0)
(213.465 -7.77942 0)
(212.229 -7.31212 0)
(211.231 -7.40617 0)
(210.697 -7.36918 0)
(210.482 -7.2051 0)
(210.506 -7.18762 0)
(210.643 -7.07734 0)
(210.813 -6.97901 0)
(210.98 -6.92632 0)
(211.123 -6.78732 0)
(211.257 -6.6635 0)
(211.378 -6.56767 0)
(211.475 -6.41881 0)
(211.564 -6.24815 0)
(211.651 -6.09273 0)
(211.711 -5.9164 0)
(211.748 -5.7273 0)
(211.785 -5.52493 0)
(211.857 -5.31822 0)
(211.938 -5.106 0)
(212.02 -4.87848 0)
(212.108 -4.63434 0)
(212.202 -4.37922 0)
(212.305 -4.11402 0)
(212.413 -3.83361 0)
(212.529 -3.53894 0)
(212.644 -3.23301 0)
(212.768 -2.91924 0)
(212.881 -2.59452 0)
(213.001 -2.26294 0)
(213.112 -1.92529 0)
(213.219 -1.58193 0)
(213.278 -1.23096 0)
(213.4 -0.889612 0)
(213.376 -0.515159 0)
(213.526 -0.189429 0)
(220.247 -8.51449 0)
(220.116 -8.27084 0)
(219.711 -8.33794 0)
(218.938 -8.38722 0)
(217.803 -8.16372 0)
(216.526 -7.76883 0)
(215.055 -7.73499 0)
(213.791 -7.88852 0)
(212.673 -7.69664 0)
(211.973 -7.43088 0)
(211.709 -7.44387 0)
(211.767 -7.41048 0)
(211.941 -7.28253 0)
(212.141 -7.22044 0)
(212.326 -7.15444 0)
(212.477 -7.01039 0)
(212.615 -6.91496 0)
(212.735 -6.81667 0)
(212.828 -6.65854 0)
(212.919 -6.50249 0)
(213.004 -6.36239 0)
(213.067 -6.19709 0)
(213.098 -6.00939 0)
(213.119 -5.81359 0)
(213.189 -5.61312 0)
(213.27 -5.40403 0)
(213.352 -5.17914 0)
(213.438 -4.93858 0)
(213.531 -4.68584 0)
(213.633 -4.4194 0)
(213.741 -4.13528 0)
(213.858 -3.83519 0)
(213.977 -3.52056 0)
(214.104 -3.19277 0)
(214.225 -2.85012 0)
(214.35 -2.49647 0)
(214.467 -2.13187 0)
(214.585 -1.75763 0)
(214.648 -1.37325 0)
(214.785 -0.995826 0)