/*--------------------------------*- C++ -*----------------------------------*\
| =========                 |                                                 |
| \\      /  F ield         | OpenFOAM: The Open Source CFD Toolbox           |
|  \\    /   O peration     | Version:  2406                                  |
|   \\  /    A nd           | Website:  www.openfoam.com                      |
|    \\/     M anipulation  |                                                 |
\*---------------------------------------------------------------------------*/
FoamFile
{
    version     2.0;
    format      ascii;
    arch        "LSB;label=32;scalar=64";
    class       volVectorField;
    location    "0.109";
    object      U_0;
}
// * * * * * * * * * * * * * * * * * * * * * * * * * * * * * * * * * * * * * //

dimensions      [0 1 -1 0 0 0 0];

internalField   nonuniform List<vector> 
8988
(
(190.657 -0.282622 0)
(190.647 -0.327538 0)
(190.544 -0.232024 0)
(190.454 -0.285985 0)
(190.408 -0.333911 0)
(190.407 -0.349467 0)
(190.407 -0.324209 0)
(190.414 -0.310694 0)
(190.409 -0.317258 0)
(190.413 -0.340212 0)
(190.418 -0.339398 0)
(190.42 -0.337124 0)
(190.42 -0.334807 0)
(190.417 -0.338497 0)
(190.417 -0.340627 0)
(190.417 -0.338241 0)
(190.415 -0.334258 0)
(190.41 -0.330672 0)
(190.404 -0.328392 0)
(190.396 -0.326675 0)
(190.388 -0.324609 0)
(190.376 -0.320792 0)
(190.357 -0.317063 0)
(190.332 -0.310058 0)
(190.302 -0.300765 0)
(190.268 -0.292463 0)
(190.232 -0.282481 0)
(190.193 -0.270577 0)
(190.148 -0.255007 0)
(190.099 -0.238664 0)
(190.045 -0.220765 0)
(189.984 -0.20087 0)
(189.918 -0.179125 0)
(189.844 -0.155968 0)
(189.766 -0.131587 0)
(189.682 -0.107265 0)
(189.594 -0.081033 0)
(189.502 -0.0570563 0)
(189.412 -0.0326251 0)
(189.332 -0.0135209 0)
(189.28 0.00112793 0)
(189.248 -0.0159449 0)
(190.603 -0.533661 0)
(190.582 -0.665647 0)
(190.397 -0.446967 0)
(190.227 -0.454059 0)
(190.089 -0.64831 0)
(190.004 -0.562997 0)
(190.016 -0.416628 0)
(190.023 -0.488726 0)
(190.069 -0.578706 0)
(190.088 -0.536101 0)
(190.119 -0.478477 0)
(190.136 -0.487521 0)
(190.155 -0.504532 0)
(190.167 -0.489781 0)
(190.189 -0.476159 0)
(190.211 -0.470164 0)
(190.232 -0.462718 0)
(190.251 -0.452406 0)
(190.266 -0.440754 0)
(190.278 -0.42768 0)
(190.288 -0.41467 0)
(190.296 -0.402333 0)
(190.3 -0.388913 0)
(190.298 -0.372569 0)
(190.291 -0.355066 0)
(190.277 -0.338978 0)
(190.259 -0.325341 0)
(190.238 -0.309097 0)
(190.208 -0.284293 0)
(190.168 -0.261219 0)
(190.126 -0.244878 0)
(190.084 -0.229123 0)
(190.04 -0.212266 0)
(189.991 -0.195128 0)
(189.939 -0.177976 0)
(189.884 -0.161183 0)
(189.828 -0.139773 0)
(189.769 -0.11762 0)
(189.714 -0.090818 0)
(189.663 -0.0669792 0)
(189.633 -0.0395078 0)
(189.619 -0.0231465 0)
(190.866 -0.902474 0)
(190.813 -1.10194 0)
(190.643 -0.848826 0)
(190.339 -0.592616 0)
(190.079 -0.676172 0)
(189.892 -0.937032 0)
(189.83 -0.895664 0)
(189.802 -0.675881 0)
(189.799 -0.670749 0)
(189.844 -0.813244 0)
(189.883 -0.77775 0)
(189.916 -0.702581 0)
(189.936 -0.69792 0)
(189.972 -0.704418 0)
(190.014 -0.681413 0)
(190.053 -0.660794 0)
(190.084 -0.642434 0)
(190.111 -0.622089 0)
(190.133 -0.598028 0)
(190.151 -0.572251 0)
(190.168 -0.545456 0)
(190.18 -0.517524 0)
(190.189 -0.487989 0)
(190.195 -0.455531 0)
(190.198 -0.421222 0)
(190.197 -0.387307 0)
(190.196 -0.357355 0)
(190.191 -0.330834 0)
(190.188 -0.30481 0)
(190.185 -0.274781 0)
(190.17 -0.250645 0)
(190.146 -0.225836 0)
(190.118 -0.207869 0)
(190.096 -0.190063 0)
(190.073 -0.177956 0)
(190.054 -0.168604 0)
(190.039 -0.159775 0)
(190.028 -0.150138 0)
(190.019 -0.132604 0)
(190.011 -0.108598 0)
(190.009 -0.0627543 0)
(190.02 -0.0260481 0)
(191.142 -1.19044 0)
(191.092 -1.39848 0)
(190.883 -1.13607 0)
(190.485 -0.937394 0)
(190.109 -0.900074 0)
(189.724 -1.11267 0)
(189.622 -1.24758 0)
(189.515 -0.983843 0)
(189.508 -0.842219 0)
(189.525 -1.02001 0)
(189.581 -1.05265 0)
(189.605 -0.937455 0)
(189.635 -0.882813 0)
(189.683 -0.909881 0)
(189.745 -0.871876 0)
(189.817 -0.83863 0)
(189.87 -0.806543 0)
(189.911 -0.776007 0)
(189.944 -0.741982 0)
(189.975 -0.707758 0)
(190.004 -0.672196 0)
(190.03 -0.633598 0)
(190.055 -0.592322 0)
(190.08 -0.54951 0)
(190.104 -0.506716 0)
(190.129 -0.466231 0)
(190.151 -0.428633 0)
(190.174 -0.394817 0)
(190.203 -0.362076 0)
(190.24 -0.330689 0)
(190.269 -0.300194 0)
(190.291 -0.272439 0)
(190.31 -0.247399 0)
(190.326 -0.22642 0)
(190.345 -0.208859 0)
(190.37 -0.193894 0)
(190.399 -0.179165 0)
(190.432 -0.160721 0)
(190.464 -0.135105 0)
(190.492 -0.100897 0)
(190.518 -0.0574141 0)
(190.542 -0.0154788 0)
(191.347 -1.51032 0)
(191.296 -1.4577 0)
(191.075 -1.35879 0)
(190.67 -1.52509 0)
(190.13 -1.26882 0)
(189.78 -1.15624 0)
(189.446 -1.32201 0)
(189.328 -1.36491 0)
(189.249 -1.2006 0)
(189.217 -1.1678 0)
(189.244 -1.22708 0)
(189.297 -1.16547 0)
(189.398 -1.146 0)
(189.504 -1.11472 0)
(189.596 -1.0809 0)
(189.664 -1.0369 0)
(189.721 -1.00182 0)
(189.766 -0.959542 0)
(189.808 -0.918134 0)
(189.849 -0.876956 0)
(189.89 -0.834299 0)
(189.931 -0.787005 0)
(189.972 -0.73478 0)
(190.016 -0.681714 0)
(190.062 -0.62991 0)
(190.112 -0.577329 0)
(190.169 -0.521789 0)
(190.234 -0.464259 0)
(190.297 -0.410667 0)
(190.349 -0.363584 0)
(190.409 -0.32403 0)
(190.473 -0.288313 0)
(190.539 -0.256605 0)
(190.604 -0.228213 0)
(190.669 -0.2028 0)
(190.736 -0.180946 0)
(190.804 -0.163298 0)
(190.871 -0.142981 0)
(190.934 -0.116761 0)
(190.985 -0.079598 0)
(191.036 -0.0463707 0)
(191.058 0.00210527 0)
(191.594 -1.70614 0)
(191.563 -1.54494 0)
(191.362 -1.64023 0)
(190.887 -1.71749 0)
(190.352 -1.80305 0)
(189.835 -1.57125 0)
(189.515 -1.39135 0)
(189.231 -1.52958 0)
(189.127 -1.64211 0)
(189.055 -1.50645 0)
(189.058 -1.41425 0)
(189.145 -1.46372 0)
(189.286 -1.42203 0)
(189.417 -1.3752 0)
(189.524 -1.34888 0)
(189.599 -1.30225 0)
(189.663 -1.26513 0)
(189.714 -1.21722 0)
(189.764 -1.16847 0)
(189.815 -1.12035 0)
(189.87 -1.07114 0)
(189.929 -1.01446 0)
(189.994 -0.950457 0)
(190.066 -0.88843 0)
(190.143 -0.832171 0)
(190.226 -0.774235 0)
(190.317 -0.708285 0)
(190.41 -0.637731 0)
(190.505 -0.572078 0)
(190.601 -0.512399 0)
(190.699 -0.454922 0)
(190.801 -0.400774 0)
(190.904 -0.350296 0)
(191.004 -0.302872 0)
(191.1 -0.259433 0)
(191.19 -0.21962 0)
(191.274 -0.18268 0)
(191.351 -0.148499 0)
(191.421 -0.115676 0)
(191.474 -0.0777106 0)
(191.527 -0.0457218 0)
(191.547 0.0118008 0)
(191.979 -1.96538 0)
(191.929 -2.08049 0)
(191.746 -2.00714 0)
(191.295 -1.78319 0)
(190.673 -1.93375 0)
(190.12 -2.07471 0)
(189.655 -1.90018 0)
(189.371 -1.73551 0)
(189.136 -1.84261 0)
(189.063 -1.87728 0)
(189.082 -1.77419 0)
(189.198 -1.78308 0)
(189.364 -1.77658 0)
(189.507 -1.71843 0)
(189.623 -1.68331 0)
(189.696 -1.63687 0)
(189.763 -1.61329 0)
(189.819 -1.56968 0)
(189.874 -1.52007 0)
(189.933 -1.47023 0)
(189.996 -1.42304 0)
(190.065 -1.36962 0)
(190.142 -1.30586 0)
(190.231 -1.2412 0)
(190.327 -1.18003 0)
(190.429 -1.11573 0)
(190.537 -1.04321 0)
(190.649 -0.967184 0)
(190.763 -0.891801 0)
(190.885 -0.816331 0)
(191.009 -0.73728 0)
(191.142 -0.658808 0)
(191.275 -0.581525 0)
(191.403 -0.506198 0)
(191.523 -0.434087 0)
(191.634 -0.36494 0)
(191.737 -0.301262 0)
(191.825 -0.244826 0)
(191.898 -0.193462 0)
(191.951 -0.139079 0)
(192.008 -0.0861783 0)
(192.026 -0.00472955 0)
(192.543 -2.40541 0)
(192.516 -2.46614 0)
(192.225 -2.26347 0)
(191.811 -2.34682 0)
(191.186 -2.09445 0)
(190.56 -2.13138 0)
(190.006 -2.3172 0)
(189.609 -2.24959 0)
(189.376 -2.11035 0)
(189.25 -2.17325 0)
(189.286 -2.1605 0)
(189.415 -2.14307 0)
(189.587 -2.1784 0)
(189.738 -2.10866 0)
(189.862 -2.09437 0)
(189.951 -2.07171 0)
(190.019 -2.04966 0)
(190.075 -2.01796 0)
(190.133 -1.97392 0)
(190.194 -1.93001 0)
(190.259 -1.89083 0)
(190.331 -1.84623 0)
(190.41 -1.79222 0)
(190.498 -1.73652 0)
(190.593 -1.68102 0)
(190.694 -1.61954 0)
(190.8 -1.54914 0)
(190.916 -1.4752 0)
(191.042 -1.39752 0)
(191.175 -1.3112 0)
(191.313 -1.21493 0)
(191.46 -1.11288 0)
(191.609 -1.00596 0)
(191.758 -0.895954 0)
(191.901 -0.784687 0)
(192.039 -0.674474 0)
(192.166 -0.567207 0)
(192.276 -0.466663 0)
(192.366 -0.372449 0)
(192.429 -0.277109 0)
(192.501 -0.17818 0)
(192.508 -0.0465913 0)
(193.291 -2.60917 0)
(193.242 -2.44947 0)
(193.032 -2.56385 0)
(192.476 -2.69581 0)
(191.834 -2.6827 0)
(191.127 -2.456 0)
(190.536 -2.42624 0)
(190.047 -2.6026 0)
(189.731 -2.60218 0)
(189.561 -2.48719 0)
(189.533 -2.51426 0)
(189.662 -2.56285 0)
(189.845 -2.54601 0)
(190.024 -2.5424 0)
(190.175 -2.53431 0)
(190.282 -2.5446 0)
(190.352 -2.51773 0)
(190.407 -2.51452 0)
(190.458 -2.49541 0)
(190.516 -2.47372 0)
(190.582 -2.44709 0)
(190.654 -2.42391 0)
(190.731 -2.39808 0)
(190.819 -2.36243 0)
(190.914 -2.31675 0)
(191.018 -2.26243 0)
(191.129 -2.20029 0)
(191.248 -2.1302 0)
(191.377 -2.05037 0)
(191.513 -1.9566 0)
(191.656 -1.84797 0)
(191.806 -1.72573 0)
(191.96 -1.59036 0)
(192.118 -1.44429 0)
(192.275 -1.28963 0)
(192.437 -1.13085 0)
(192.59 -0.96929 0)
(192.727 -0.807357 0)
(192.844 -0.644507 0)
(192.925 -0.474183 0)
(193.015 -0.296027 0)
(193.011 -0.0890757 0)
(194.057 -2.94409 0)
(194.019 -3.15903 0)
(193.785 -2.91405 0)
(193.222 -2.75956 0)
(192.501 -2.76072 0)
(191.673 -2.949 0)
(191.012 -2.93702 0)
(190.516 -2.81081 0)
(190.182 -2.85119 0)
(190.037 -2.88608 0)
(190.022 -2.8858 0)
(190.12 -2.91998 0)
(190.292 -2.89398 0)
(190.476 -2.92989 0)
(190.637 -2.9546 0)
(190.757 -2.94452 0)
(190.837 -2.959 0)
(190.897 -2.96316 0)
(190.943 -2.98485 0)
(190.996 -2.9931 0)
(191.054 -2.98959 0)
(191.115 -2.99197 0)
(191.18 -2.99381 0)
(191.252 -2.98509 0)
(191.333 -2.96235 0)
(191.423 -2.92936 0)
(191.522 -2.88685 0)
(191.631 -2.83125 0)
(191.75 -2.75795 0)
(191.88 -2.66472 0)
(192.021 -2.55221 0)
(192.171 -2.42061 0)
(192.326 -2.26905 0)
(192.489 -2.09833 0)
(192.655 -1.90858 0)
(192.832 -1.70269 0)
(193.009 -1.48124 0)
(193.172 -1.24406 0)
(193.317 -0.99163 0)
(193.427 -0.721964 0)
(193.546 -0.442119 0)
(193.54 -0.135449 0)
(194.967 -3.26549 0)
(194.903 -3.13875 0)
(194.646 -3.14894 0)
(194.039 -3.36861 0)
(193.262 -3.20237 0)
(192.458 -3.0009 0)
(191.631 -3.11659 0)
(191.069 -3.29735 0)
(190.666 -3.22149 0)
(190.471 -3.1657 0)
(190.476 -3.23807 0)
(190.623 -3.28027 0)
(190.811 -3.28499 0)
(191.008 -3.27794 0)
(191.171 -3.34172 0)
(191.303 -3.33163 0)
(191.393 -3.37069 0)
(191.465 -3.37669 0)
(191.515 -3.4082 0)
(191.569 -3.42079 0)
(191.619 -3.44207 0)
(191.672 -3.45852 0)
(191.724 -3.47872 0)
(191.78 -3.48689 0)
(191.84 -3.48888 0)
(191.908 -3.486 0)
(191.985 -3.47341 0)
(192.074 -3.44452 0)
(192.177 -3.39489 0)
(192.294 -3.32158 0)
(192.424 -3.22373 0)
(192.568 -3.10041 0)
(192.722 -2.94905 0)
(192.886 -2.76733 0)
(193.059 -2.55277 0)
(193.244 -2.3051 0)
(193.433 -2.02486 0)
(193.611 -1.71239 0)
(193.779 -1.37027 0)
(193.913 -0.999538 0)
(194.062 -0.611521 0)
(194.055 -0.188247 0)
(195.948 -3.39445 0)
(195.874 -3.42031 0)
(195.55 -3.50804 0)
(195.005 -3.35623 0)
(194.087 -3.61137 0)
(193.198 -3.57387 0)
(192.368 -3.3724 0)
(191.663 -3.40173 0)
(191.258 -3.5677 0)
(191.078 -3.52275 0)
(191.079 -3.51005 0)
(191.214 -3.59476 0)
(191.416 -3.5854 0)
(191.611 -3.5984 0)
(191.783 -3.65544 0)
(191.924 -3.66922 0)
(192.029 -3.68563 0)
(192.103 -3.72712 0)
(192.162 -3.7397 0)
(192.209 -3.76476 0)
(192.259 -3.77967 0)
(192.306 -3.80585 0)
(192.354 -3.83083 0)
(192.405 -3.84522 0)
(192.455 -3.85539 0)
(192.509 -3.86665 0)
(192.569 -3.87395 0)
(192.636 -3.86903 0)
(192.714 -3.84919 0)
(192.804 -3.81092 0)
(192.91 -3.74887 0)
(193.033 -3.65655 0)
(193.174 -3.52573 0)
(193.331 -3.34873 0)
(193.502 -3.12085 0)
(193.683 -2.84187 0)
(193.868 -2.51554 0)
(194.052 -2.14321 0)
(194.23 -1.72623 0)
(194.374 -1.26679 0)
(194.539 -0.778616 0)
(194.523 -0.245219 0)
(196.977 -3.86918 0)
(196.914 -4.07672 0)
(196.609 -3.78512 0)
(195.957 -3.60881 0)
(195.088 -3.59798 0)
(194.023 -3.81492 0)
(193.179 -3.87153 0)
(192.463 -3.69851 0)
(191.95 -3.70281 0)
(191.757 -3.81377 0)
(191.783 -3.77203 0)
(191.919 -3.8695 0)
(192.126 -3.8294 0)
(192.325 -3.83534 0)
(192.492 -3.91954 0)
(192.637 -3.93574 0)
(192.744 -3.93533 0)
(192.82 -3.97551 0)
(192.881 -4.00131 0)
(192.928 -4.01644 0)
(192.972 -4.03318 0)
(193.016 -4.0563 0)
(193.063 -4.0785 0)
(193.112 -4.09562 0)
(193.163 -4.10446 0)
(193.216 -4.11309 0)
(193.272 -4.11658 0)
(193.331 -4.11519 0)
(193.395 -4.10729 0)
(193.465 -4.0905 0)
(193.542 -4.0577 0)
(193.629 -3.99973 0)
(193.731 -3.90327 0)
(193.854 -3.7538 0)
(193.998 -3.53998 0)
(194.16 -3.25696 0)
(194.326 -2.90795 0)
(194.499 -2.4964 0)
(194.674 -2.02575 0)
(194.815 -1.4998 0)
(194.988 -0.929589 0)
(194.955 -0.294889 0)
(198.114 -4.18337 0)
(198.028 -4.05996 0)
(197.664 -4.07575 0)
(197.011 -4.19859 0)
(196.062 -3.87634 0)
(195.068 -3.84297 0)
(194.074 -4.09402 0)
(193.316 -4.09331 0)
(192.83 -3.94347 0)
(192.619 -3.99516 0)
(192.652 -4.00511 0)
(192.786 -4.1037 0)
(192.969 -4.05255 0)
(193.155 -4.029 0)
(193.311 -4.12079 0)
(193.451 -4.1256 0)
(193.555 -4.13392 0)
(193.634 -4.16411 0)
(193.694 -4.18639 0)
(193.741 -4.20217 0)
(193.783 -4.21161 0)
(193.823 -4.23108 0)
(193.866 -4.24818 0)
(193.913 -4.26076 0)
(193.962 -4.27026 0)
(194.012 -4.27182 0)
(194.066 -4.26872 0)
(194.122 -4.2593 0)
(194.18 -4.24268 0)
(194.241 -4.21719 0)
(194.301 -4.1799 0)
(194.363 -4.12524 0)
(194.426 -4.0446 0)
(194.496 -3.92647 0)
(194.577 -3.75546 0)
(194.676 -3.51537 0)
(194.797 -3.19004 0)
(194.918 -2.77742 0)
(195.067 -2.28214 0)
(195.187 -1.70518 0)
(195.352 -1.06268 0)
(195.293 -0.341409 0)
(199.286 -4.29324 0)
(199.177 -4.08541 0)
(198.846 -4.32949 0)
(198.105 -4.47745 0)
(197.149 -4.43167 0)
(196.094 -4.15446 0)
(195.064 -4.145 0)
(194.306 -4.36801 0)
(193.847 -4.30039 0)
(193.655 -4.20979 0)
(193.653 -4.23927 0)
(193.763 -4.33393 0)
(193.91 -4.26275 0)
(194.068 -4.27658 0)
(194.224 -4.32699 0)
(194.358 -4.3223 0)
(194.462 -4.32223 0)
(194.54 -4.35694 0)
(194.6 -4.36264 0)
(194.646 -4.36934 0)
(194.686 -4.38296 0)
(194.724 -4.38622 0)
(194.762 -4.39527 0)
(194.804 -4.40224 0)
(194.847 -4.40242 0)
(194.89 -4.39581 0)
(194.933 -4.38578 0)
(194.976 -4.36876 0)
(195.02 -4.33948 0)
(195.064 -4.29517 0)
(195.105 -4.23698 0)
(195.144 -4.16644 0)
(195.179 -4.07268 0)
(195.212 -3.9529 0)
(195.242 -3.80097 0)
(195.272 -3.60013 0)
(195.302 -3.32221 0)
(195.369 -2.95414 0)
(195.434 -2.46948 0)
(195.504 -1.87428 0)
(195.643 -1.17988 0)
(195.559 -0.386763 0)
(200.379 -4.54571 0)
(200.281 -4.61238 0)
(199.923 -4.64943 0)
(199.257 -4.44001 0)
(198.196 -4.65451 0)
(197.146 -4.64708 0)
(196.194 -4.43285 0)
(195.439 -4.49042 0)
(195.003 -4.58854 0)
(194.793 -4.4721 0)
(194.749 -4.51733 0)
(194.836 -4.52713 0)
(194.968 -4.46797 0)
(195.1 -4.54602 0)
(195.245 -4.54346 0)
(195.366 -4.50283 0)
(195.46 -4.52206 0)
(195.537 -4.53635 0)
(195.592 -4.5419 0)
(195.633 -4.53569 0)
(195.666 -4.53621 0)
(195.696 -4.54221 0)
(195.727 -4.54458 0)
(195.759 -4.53855 0)
(195.789 -4.52385 0)
(195.82 -4.51035 0)
(195.849 -4.4856 0)
(195.876 -4.45449 0)
(195.9 -4.41014 0)
(195.922 -4.34937 0)
(195.94 -4.26962 0)
(195.954 -4.17188 0)
(195.961 -4.05396 0)
(195.962 -3.91466 0)
(195.952 -3.74954 0)
(195.929 -3.55106 0)
(195.896 -3.30329 0)
(195.867 -2.96991 0)
(195.864 -2.52067 0)
(195.835 -1.94841 0)
(195.908 -1.25224 0)
(195.782 -0.428583 0)
(201.654 -5.03278 0)
(201.601 -5.04106 0)
(201.16 -4.85107 0)
(200.414 -4.83615 0)
(199.43 -4.66705 0)
(198.272 -4.75677 0)
(197.311 -4.83484 0)
(196.577 -4.73813 0)
(196.11 -4.70389 0)
(195.89 -4.73441 0)
(195.861 -4.79632 0)
(195.93 -4.70327 0)
(196.049 -4.71922 0)
(196.186 -4.79447 0)
(196.308 -4.73569 0)
(196.411 -4.73181 0)
(196.497 -4.76205 0)
(196.564 -4.74881 0)
(196.611 -4.74564 0)
(196.646 -4.74469 0)
(196.674 -4.73244 0)
(196.698 -4.72312 0)
(196.718 -4.71281 0)
(196.736 -4.69677 0)
(196.754 -4.6721 0)
(196.771 -4.64166 0)
(196.785 -4.60444 0)
(196.794 -4.55474 0)
(196.798 -4.48915 0)
(196.797 -4.40605 0)
(196.79 -4.30408 0)
(196.779 -4.18231 0)
(196.759 -4.03761 0)
(196.729 -3.86839 0)
(196.686 -3.67237 0)
(196.626 -3.44346 0)
(196.545 -3.17081 0)
(196.451 -2.84109 0)
(196.369 -2.42243 0)
(196.275 -1.88214 0)
(196.256 -1.2163 0)
(196.075 -0.445083 0)
(202.994 -5.11013 0)
(202.821 -4.88793 0)
(202.444 -5.10618 0)
(201.663 -5.2546 0)
(200.579 -5.14954 0)
(199.451 -4.85893 0)
(198.32 -4.90507 0)
(197.566 -5.07282 0)
(197.122 -4.94952 0)
(196.921 -4.94035 0)
(196.907 -4.98148 0)
(196.98 -4.92582 0)
(197.092 -4.9703 0)
(197.225 -4.98948 0)
(197.342 -4.93255 0)
(197.441 -4.96032 0)
(197.525 -4.98581 0)
(197.585 -4.94159 0)
(197.632 -4.92169 0)
(197.662 -4.92636 0)
(197.685 -4.90884 0)
(197.702 -4.8822 0)
(197.715 -4.85771 0)
(197.723 -4.82904 0)
(197.728 -4.79236 0)
(197.73 -4.74653 0)
(197.727 -4.68985 0)
(197.719 -4.62058 0)
(197.704 -4.53567 0)
(197.684 -4.43375 0)
(197.655 -4.31227 0)
(197.618 -4.16749 0)
(197.572 -3.99485 0)
(197.513 -3.79174 0)
(197.441 -3.55668 0)
(197.351 -3.28517 0)
(197.24 -2.96962 0)
(197.11 -2.60345 0)
(196.97 -2.18203 0)
(196.824 -1.68538 0)
(196.773 -1.08804 0)
(196.579 -0.430587 0)
(203.961 -5.36353 0)
(203.842 -5.431 0)
(203.429 -5.42189 0)
(202.663 -5.2328 0)
(201.641 -5.31124 0)
(200.528 -5.30103 0)
(199.533 -5.19087 0)
(198.754 -5.1908 0)
(198.246 -5.18948 0)
(197.993 -5.1464 0)
(197.917 -5.16525 0)
(197.955 -5.14232 0)
(198.058 -5.14718 0)
(198.183 -5.18267 0)
(198.307 -5.13305 0)
(198.418 -5.12981 0)
(198.504 -5.1543 0)
(198.567 -5.11432 0)
(198.616 -5.07909 0)
(198.649 -5.07131 0)
(198.668 -5.04684 0)
(198.679 -5.00843 0)
(198.685 -4.96775 0)
(198.684 -4.92194 0)
(198.68 -4.87074 0)
(198.67 -4.80649 0)
(198.655 -4.72842 0)
(198.634 -4.63772 0)
(198.606 -4.53256 0)
(198.57 -4.41019 0)
(198.525 -4.26658 0)
(198.467 -4.09642 0)
(198.398 -3.89482 0)
(198.315 -3.65843 0)
(198.217 -3.38541 0)
(198.107 -3.07344 0)
(197.977 -2.71956 0)
(197.832 -2.32253 0)
(197.68 -1.88562 0)
(197.518 -1.41592 0)
(197.411 -0.892964 0)
(197.222 -0.385892 0)
(205.104 -5.77849 0)
(205.021 -5.76718 0)
(204.587 -5.63856 0)
(203.841 -5.55509 0)
(202.855 -5.33787 0)
(201.633 -5.43767 0)
(200.596 -5.52385 0)
(199.776 -5.34403 0)
(199.237 -5.33496 0)
(198.954 -5.3372 0)
(198.846 -5.34224 0)
(198.862 -5.31898 0)
(198.959 -5.29103 0)
(199.092 -5.31775 0)
(199.23 -5.28997 0)
(199.354 -5.25783 0)
(199.453 -5.25023 0)
(199.523 -5.21778 0)
(199.573 -5.18007 0)
(199.608 -5.1487 0)
(199.626 -5.10661 0)
(199.631 -5.05437 0)
(199.631 -4.99892 0)
(199.624 -4.93418 0)
(199.612 -4.86134 0)
(199.594 -4.77643 0)
(199.57 -4.67857 0)
(199.54 -4.56682 0)
(199.504 -4.43885 0)
(199.457 -4.29168 0)
(199.398 -4.12163 0)
(199.326 -3.92383 0)
(199.241 -3.69443 0)
(199.142 -3.43043 0)
(199.028 -3.12978 0)
(198.906 -2.79174 0)
(198.772 -2.41658 0)
(198.626 -2.00711 0)
(198.48 -1.57096 0)
(198.34 -1.12618 0)
(198.23 -0.675832 0)
(198.087 -0.337316 0)
(206.248 -5.97909 0)
(206.127 -5.75434 0)
(205.745 -5.86569 0)
(205.03 -5.95529 0)
(203.939 -5.69971 0)
(202.845 -5.50585 0)
(201.695 -5.65834 0)
(200.799 -5.59699 0)
(200.184 -5.49314 0)
(199.832 -5.49158 0)
(199.701 -5.48293 0)
(199.721 -5.45732 0)
(199.835 -5.43292 0)
(199.989 -5.40143 0)
(200.141 -5.38461 0)
(200.272 -5.35348 0)
(200.376 -5.29556 0)
(200.453 -5.25421 0)
(200.506 -5.21682 0)
(200.539 -5.15319 0)
(200.557 -5.07861 0)
(200.56 -5.00552 0)
(200.557 -4.93201 0)
(200.544 -4.84659 0)
(200.527 -4.74782 0)
(200.504 -4.63743 0)
(200.474 -4.51771 0)
(200.437 -4.38375 0)
(200.393 -4.22919 0)
(200.337 -4.0524 0)
(200.27 -3.85375 0)
(200.19 -3.63061 0)
(200.098 -3.3796 0)
(199.993 -3.09804 0)
(199.875 -2.78375 0)
(199.754 -2.43739 0)
(199.625 -2.06255 0)
(199.495 -1.66759 0)
(199.37 -1.26573 0)
(199.284 -0.882915 0)
(199.196 -0.502358 0)
(199.123 -0.283509 0)
(207.453 -6.22905 0)
(207.348 -6.35325 0)
(206.993 -6.04557 0)
(206.218 -5.84077 0)
(205.209 -5.77735 0)
(203.95 -5.9376 0)
(202.786 -5.89353 0)
(201.733 -5.63717 0)
(201.015 -5.61822 0)
(200.651 -5.66668 0)
(200.532 -5.58189 0)
(200.578 -5.54489 0)
(200.722 -5.53158 0)
(200.893 -5.45687 0)
(201.056 -5.42248 0)
(201.192 -5.38231 0)
(201.293 -5.29395 0)
(201.372 -5.22721 0)
(201.427 -5.16978 0)
(201.457 -5.08407 0)
(201.474 -4.98572 0)
(201.476 -4.88838 0)
(201.47 -4.79002 0)
(201.455 -4.67836 0)
(201.434 -4.551 0)
(201.409 -4.41243 0)
(201.376 -4.26573 0)
(201.334 -4.10432 0)
(201.285 -3.92215 0)
(201.224 -3.72025 0)
(201.153 -3.49978 0)
(201.072 -3.25757 0)
(200.98 -2.99147 0)
(200.881 -2.70182 0)
(200.77 -2.38833 0)
(200.66 -2.05428 0)
(200.55 -1.70687 0)
(200.451 -1.35831 0)
(200.361 -1.01982 0)
(200.337 -0.72051 0)
(200.257 -0.405173 0)
(200.264 -0.234174 0)
(208.694 -6.45119 0)
(208.582 -6.29037 0)
(208.148 -6.27109 0)
(207.395 -6.31518 0)
(206.314 -6.04481 0)
(205.05 -5.95411 0)
(203.793 -6.00915 0)
(202.688 -5.84559 0)
(201.913 -5.77559 0)
(201.478 -5.7571 0)
(201.354 -5.68076 0)
(201.445 -5.63916 0)
(201.629 -5.59762 0)
(201.815 -5.50807 0)
(201.98 -5.4565 0)
(202.112 -5.38989 0)
(202.209 -5.27886 0)
(202.286 -5.18255 0)
(202.341 -5.09401 0)
(202.372 -4.98476 0)
(202.387 -4.8598 0)
(202.385 -4.73032 0)
(202.38 -4.60209 0)
(202.366 -4.46321 0)
(202.344 -4.31119 0)
(202.317 -4.14715 0)
(202.282 -3.97091 0)
(202.239 -3.77811 0)
(202.189 -3.56806 0)
(202.129 -3.34495 0)
(202.061 -3.10919 0)
(201.985 -2.85665 0)
(201.902 -2.58608 0)
(201.818 -2.3011 0)
(201.726 -2.00534 0)
(201.643 -1.70642 0)
(201.566 -1.41133 0)
(201.507 -1.12827 0)
(201.452 -0.855976 0)
(201.468 -0.62173 0)
(201.383 -0.3631 0)
(201.448 -0.192095 0)
(209.811 -6.72823 0)
(209.708 -6.48181 0)
(209.252 -6.58377 0)
(208.448 -6.58663 0)
(207.328 -6.28581 0)
(206.064 -6.05437 0)
(204.768 -6.20013 0)
(203.631 -6.14399 0)
(202.828 -5.91729 0)
(202.385 -5.86852 0)
(202.289 -5.84041 0)
(202.396 -5.74004 0)
(202.583 -5.63762 0)
(202.769 -5.5712 0)
(202.923 -5.48411 0)
(203.046 -5.37601 0)
(203.139 -5.26336 0)
(203.21 -5.14587 0)
(203.262 -5.0225 0)
(203.293 -4.89164 0)
(203.305 -4.74989 0)
(203.297 -4.59399 0)
(203.29 -4.43041 0)
(203.281 -4.25843 0)
(203.262 -4.07676 0)
(203.237 -3.88542 0)
(203.205 -3.68283 0)
(203.166 -3.46733 0)
(203.122 -3.23916 0)
(203.071 -3.00118 0)
(203.013 -2.75516 0)
(202.953 -2.50108 0)
(202.89 -2.2399 0)
(202.831 -1.97672 0)
(202.771 -1.71578 0)
(202.724 -1.46384 0)
(202.68 -1.22144 0)
(202.654 -0.991294 0)
(202.618 -0.763963 0)
(202.646 -0.561163 0)
(202.559 -0.336115 0)
(202.648 -0.163853 0)
(210.731 -7.03196 0)
(210.661 -6.94349 0)
(210.211 -6.80715 0)
(209.393 -6.69594 0)
(208.341 -6.31563 0)
(207.005 -6.30672 0)
(205.798 -6.48022 0)
(204.625 -6.30436 0)
(203.807 -6.02133 0)
(203.39 -6.03532 0)
(203.317 -5.97573 0)
(203.403 -5.81953 0)
(203.563 -5.70742 0)
(203.727 -5.65314 0)
(203.865 -5.53523 0)
(203.974 -5.3862 0)
(204.065 -5.25967 0)
(204.133 -5.12957 0)
(204.183 -4.98284 0)
(204.215 -4.82595 0)
(204.227 -4.66101 0)
(204.219 -4.48521 0)
(204.21 -4.30142 0)
(204.207 -4.11266 0)
(204.197 -3.911 0)
(204.18 -3.69607 0)
(204.158 -3.47076 0)
(204.132 -3.23879 0)
(204.102 -3.00116 0)
(204.069 -2.75906 0)
(204.033 -2.51458 0)
(204 -2.2702 0)
(203.965 -2.02809 0)
(203.938 -1.79312 0)
(203.908 -1.56563 0)
(203.889 -1.34779 0)
(203.864 -1.13561 0)
(203.853 -0.931606 0)
(203.827 -0.726185 0)
(203.856 -0.535259 0)
(203.775 -0.323032 0)
(203.875 -0.148653 0)
(211.708 -6.95795 0)
(211.563 -6.89724 0)
(211.176 -6.88494 0)
(210.411 -6.84249 0)
(209.314 -6.75796 0)
(207.995 -6.5573 0)
(206.751 -6.38861 0)
(205.655 -6.34815 0)
(204.862 -6.2262 0)
(204.43 -6.09609 0)
(204.296 -6.04232 0)
(204.357 -5.9133 0)
(204.503 -5.80637 0)
(204.654 -5.74285 0)
(204.779 -5.6086 0)
(204.887 -5.46461 0)
(204.975 -5.33433 0)
(205.043 -5.18671 0)
(205.095 -5.02237 0)
(205.133 -4.8498 0)
(205.151 -4.66724 0)
(205.153 -4.47314 0)
(205.15 -4.27266 0)
(205.157 -4.06948 0)
(205.163 -3.85741 0)
(205.162 -3.63006 0)
(205.157 -3.39277 0)
(205.151 -3.15328 0)
(205.146 -2.91416 0)
(205.139 -2.67584 0)
(205.13 -2.43873 0)
(205.124 -2.20468 0)
(205.116 -1.97525 0)
(205.114 -1.75463 0)
(205.105 -1.54068 0)
(205.105 -1.33405 0)
(205.092 -1.13054 0)
(205.092 -0.933648 0)
(205.076 -0.734457 0)
(205.107 -0.543144 0)
(205.033 -0.32917 0)
(205.142 -0.14401 0)
(212.885 -7.06072 0)
(212.712 -7.17929 0)
(212.231 -7.07442 0)
(211.459 -6.92046 0)
(210.359 -7.06328 0)
(209.037 -6.90116 0)
(207.77 -6.48656 0)
(206.602 -6.50314 0)
(205.752 -6.43842 0)
(205.291 -6.28367 0)
(205.169 -6.21148 0)
(205.248 -6.09154 0)
(205.401 -5.98392 0)
(205.554 -5.88567 0)
(205.682 -5.75033 0)
(205.791 -5.61285 0)
(205.882 -5.46781 0)
(205.956 -5.30891 0)
(206.017 -5.14474 0)
(206.063 -4.97001 0)
(206.092 -4.77782 0)
(206.109 -4.57334 0)
(206.119 -4.36468 0)
(206.139 -4.15399 0)
(206.163 -3.9332 0)
(206.185 -3.70319 0)
(206.202 -3.46797 0)
(206.219 -3.22844 0)
(206.24 -2.98888 0)
(206.262 -2.74947 0)
(206.28 -2.51103 0)
(206.3 -2.27698 0)
(206.316 -2.04844 0)
(206.336 -1.82796 0)
(206.345 -1.61175 0)
(206.362 -1.40038 0)
(206.364 -1.1901 0)
(206.376 -0.985357 0)
(206.371 -0.779064 0)
(206.408 -0.576316 0)
(206.34 -0.350595 0)
(206.457 -0.147307 0)
(213.684 -7.50714 0)
(213.604 -7.55239 0)
(213.172 -7.28347 0)
(212.418 -7.18678 0)
(211.344 -7.06483 0)
(210.046 -7.03293 0)
(208.72 -6.92283 0)
(207.571 -6.69617 0)
(206.741 -6.59834 0)
(206.262 -6.54517 0)
(206.12 -6.41928 0)
(206.183 -6.30602 0)
(206.324 -6.21058 0)
(206.47 -6.08892 0)
(206.601 -5.96048 0)
(206.715 -5.82626 0)
(206.811 -5.67165 0)
(206.897 -5.51225 0)
(206.97 -5.34795 0)
(207.027 -5.16836 0)
(207.071 -4.97307 0)
(207.103 -4.77011 0)
(207.128 -4.56248 0)
(207.162 -4.34838 0)
(207.205 -4.12467 0)
(207.247 -3.89357 0)
(207.286 -3.65841 0)
(207.327 -3.42178 0)
(207.369 -3.18171 0)
(207.414 -2.93813 0)
(207.458 -2.69348 0)
(207.504 -2.45228 0)
(207.544 -2.21393 0)
(207.587 -1.98026 0)
(207.617 -1.74843 0)
(207.655 -1.52077 0)
(207.677 -1.29351 0)
(207.703 -1.0702 0)
(207.713 -0.846572 0)
(207.76 -0.621695 0)
(207.697 -0.380042 0)
(207.822 -0.155045 0)
(214.709 -7.57971 0)
(214.539 -7.4252 0)
(214.143 -7.5569 0)
(213.407 -7.54745 0)
(212.334 -7.37951 0)
(211.015 -7.14623 0)
(209.738 -6.9789 0)
(208.605 -7.02951 0)
(207.752 -6.86635 0)
(207.304 -6.70879 0)
(207.152 -6.63009 0)
(207.19 -6.5388 0)
(207.309 -6.42551 0)
(207.446 -6.30655 0)
(207.579 -6.18996 0)
(207.699 -6.05428 0)
(207.807 -5.90363 0)
(207.903 -5.75179 0)
(207.985 -5.5917 0)
(208.052 -5.41463 0)
(208.107 -5.22437 0)
(208.151 -5.02884 0)
(208.189 -4.82803 0)
(208.232 -4.61373 0)
(208.288 -4.39518 0)
(208.346 -4.16735 0)
(208.403 -3.93416 0)
(208.464 -3.69578 0)
(208.526 -3.44969 0)
(208.593 -3.19826 0)
(208.658 -2.94549 0)
(208.728 -2.69407 0)
(208.79 -2.44105 0)
(208.858 -2.18737 0)
(208.912 -1.931 0)
(208.973 -1.67789 0)
(209.019 -1.42637 0)
(209.064 -1.17796 0)
(209.091 -0.927668 0)
(209.152 -0.676861 0)
(209.096 -0.4098 0)
(209.23 -0.164708 0)
(215.79 -7.99993 0)
(215.713 -7.84665 0)
(215.266 -7.80928 0)
(214.472 -7.72335 0)
(213.386 -7.34267 0)
(212.063 -7.30767 0)
(210.81 -7.3776 0)
(209.659 -7.15694 0)
(208.88 -7.00297 0)
(208.429 -6.94924 0)
(208.244 -6.85061 0)
(208.238 -6.74655 0)
(208.336 -6.65338 0)
(208.472 -6.54469 0)
(208.615 -6.4292 0)
(208.748 -6.30226 0)
(208.865 -6.16154 0)
(208.97 -6.01748 0)
(209.062 -5.86675 0)
(209.138 -5.69998 0)
(209.202 -5.51822 0)
(209.261 -5.32942 0)
(209.304 -5.12643 0)
(209.349 -4.9206 0)
(209.417 -4.70414 0)
(209.488 -4.47837 0)
(209.557 -4.24531 0)
(209.633 -4.00424 0)
(209.711 -3.75332 0)
(209.796 -3.49519 0)
(209.881 -3.23163 0)
(209.972 -2.96502 0)
(210.055 -2.69432 0)
(210.145 -2.42044 0)
(210.222 -2.13915 0)
(210.307 -1.85707 0)
(210.38 -1.57627 0)
(210.447 -1.29754 0)
(210.489 -1.01682 0)
(210.57 -0.739626 0)
(210.523 -0.436764 0)
(210.665 -0.173005 0)
(217.14 -8.05801 0)
(216.998 -8.29469 0)
(216.602 -7.85247 0)
(215.816 -7.54947 0)
(214.664 -7.56304 0)
(213.373 -7.79117 0)
(212.043 -7.61125 0)
(210.849 -7.15511 0)
(209.976 -7.18323 0)
(209.529 -7.17641 0)
(209.34 -7.0367 0)
(209.337 -6.96514 0)
(209.443 -6.86053 0)
(209.592 -6.76538 0)
(209.745 -6.68548 0)
(209.885 -6.55624 0)
(210.013 -6.41836 0)
(210.127 -6.29519 0)
(210.224 -6.14977 0)
(210.306 -5.98023 0)
(210.382 -5.8105 0)
(210.442 -5.62972 0)
(210.483 -5.43668 0)
(210.526 -5.23389 0)
(210.598 -5.02219 0)
(210.676 -4.80191 0)
(210.756 -4.5691 0)
(210.842 -4.3233 0)
(210.932 -4.06741 0)
(211.03 -3.8035 0)
(211.131 -3.52892 0)
(211.238 -3.24533 0)
(211.341 -2.95484 0)
(211.45 -2.66006 0)
(211.547 -2.35623 0)
(211.652 -2.04855 0)
(211.748 -1.73937 0)
(211.837 -1.42911 0)
(211.889 -1.11431 0)
(211.991 -0.806465 0)
(211.955 -0.467077 0)
(212.103 -0.180892 0)
(218.698 -8.16616 0)
(218.548 -8.43591 0)
(218.131 -8.00637 0)
(217.361 -7.72595 0)
(216.13 -7.90167 0)
(214.861 -8.02486 0)
(213.46 -7.72044 0)
(212.225 -7.28772 0)
(211.245 -7.45246 0)
(210.697 -7.35565 0)
(210.48 -7.20002 0)
(210.507 -7.1906 0)
(210.644 -7.07263 0)
(210.814 -6.98052 0)
(210.981 -6.9255 0)
(211.124 -6.78298 0)
(211.259 -6.66337 0)
(211.379 -6.56693 0)
(211.476 -6.41477 0)
(211.565 -6.24524 0)
(211.652 -6.09089 0)
(211.712 -5.91348 0)
(211.749 -5.72383 0)
(211.786 -5.52112 0)
(211.858 -5.3149 0)
(211.939 -5.10278 0)
(212.021 -4.87472 0)
(212.109 -4.63025 0)
(212.203 -4.37524 0)
(212.306 -4.11 0)
(212.413 -3.82939 0)
(212.53 -3.53474 0)
(212.645 -3.2291 0)
(212.768 -2.91565 0)
(212.881 -2.59125 0)
(213.001 -2.26008 0)
(213.111 -1.92283 0)
(213.218 -1.57982 0)
(213.277 -1.2293 0)
(213.399 -0.888513 0)
(213.374 -0.51462 0)
(213.524 -0.189328 0)
(220.237 -8.55663 0)
(220.134 -8.35114 0)
(219.698 -8.36727 0)
(218.948 -8.35391 0)
(217.803 -8.07282 0)
(216.539 -7.77303 0)
(215.032 -7.81107 0)
(213.805 -7.88904 0)
(212.672 -7.65244 0)
(211.97 -7.43474 0)
(211.713 -7.45799 0)
(211.768 -7.40502 0)
(211.94 -7.2788 0)
(212.142 -7.22339 0)
(212.326 -7.15115 0)
(212.477 -7.00733 0)
(212.616 -6.91582 0)
(212.735 -6.81403 0)
(212.828 -6.65431 0)
(212.92 -6.50064 0)
(213.004 -6.3609 0)
(213.067 -6.19405 0)
(213.098 -6.00592 0)
(213.12 -5.80996 0)
(213.19 -5.60979 0)
(213.27 -5.40061 0)
(213.352 -5.17528 0)
(213.439 -4.93453 0)
(213.532 -4.68178 0)
(213.634 -4.41514 0)
(213.741 -4.13081 0)
(213.859 -3.83074 0)
(213.977 -3.5163 0)
(214.104 -3.18871 0)
(214.225 -2.84634 0)
(214.35 -2.49305 0)
(214.467 -2.12878 0)
(214.584 -1.75492 0)
(214.648 -1.37111 0)
(214.784 -0.994365 0)