/*--------------------------------*- C++ -*----------------------------------*\
| =========                 |                                                 |
| \\      /  F ield         | OpenFOAM: The Open Source CFD Toolbox           |
|  \\    /   O peration     | Version:  2406                                  |
|   \\  /    A nd           | Website:  www.openfoam.com                      |
|    \\/     M anipulation  |                                                 |
\*---------------------------------------------------------------------------*/
FoamFile
{
    version     2.0;
    format      ascii;
    arch        "LSB;label=32;scalar=64";
    class       volScalarField;
    location    "0.109";
    object      Y;
}
// * * * * * * * * * * * * * * * * * * * * * * * * * * * * * * * * * * * * * //

dimensions      [0 0 0 0 0 0 0];

internalField   nonuniform List<scalar> 
8988
(
0
0
0
0
0
0
0
0
0
0
0
0
0
0
0
0
0
0
0
0
0
0
0
0
0
0
0
0
0
0
0
0
0
0
0
0
0
0
0
0
0
0
0
0
0
0
0
0
0
0
0
0
0
0
0
0
0
0
0
0
0
0
0
0
0
0
0
0
0
0
0
0
0
0
0
0
0
0
0
0
0
0
0
0
0
0
0
0
0
0
0
0
0
0
0
0
0
0
0
0
0
0
0
0
0
0
0
0
0
0
0
0
0
0
0
0
0
0
0
0
0
0
0
0
0
0
0
0
0
0
0
0
0
0
0
0
0
0
0
0
0
0
0
0
0
0
0
0
0
0
0
0
0
0
0
0
0
0
0
0
0
0
0
0
0
0
0
0
0
0
0
0
0
0
0
0
0
0
0
0
0
0
0
0
0
0
0
0
0
0
0
0
0
0
0
0
0
0
0
0
0
0
0
0
0
0
0
0
0
0
0
0
0
0
0
0
0
0
0
0
0
0
0
0
0
0
0
0
0
0
0
0
0
0
0
0
0
0
0
0
0
0
0
0
0
0
0
0
0
0
0
0
0
0
0
0
0
0
0
0
0
0
0
0
0
0
0
0
0
0
0
0
0
0
0
0
0
0
0
0
0
0
0
0
0
0
0
0
0
0
0
0
0
0
0
0
0
0
0
0
0
0
0
0
0
0
0
0
0
0
0
0
0
0
0
0
0
0
0
0
0
0
0
0
0
0
0
0
0
0
0
0
0
0
0
0
0
0
0
0
0
0
0
0
0
0
0
0
0
0
0
0
0
0
0
0
0
0
0
0
0
0
0
0
0
0
0
0
0
0
0
0
0
0
0
0
0
0
0
0
0
0
0
0
0
0
0
0
0
0
0
0
0
0
0
0
0
0
0
0
0
0
0
0
0
0
0
0
0
0
0
0
0
0
0
0
0
0
0
0
0
0
0
0
0
0
0
0
0
0
0
0
0
0
0
0
0
0
0
0
0
0
0
0
0
0
0
0
0
0
0
0
0
0
0
0
0
0
0
0
0
0
0
0
0
0
0
0
0
0
0
0
0
0
0
0
0
0
0
0
0
0
0
0
0
0
0
0
0
0
0
0
0
0
0
0
0
0
0
0
0
0
0
0
0
0
0
0
0
0
0
0
0
0
0
0
0
0
0
0
0
0
0
0
0
0
0
0
0
0
0
0
0
0
0
0
0
0
0
0
0
0
0
0
0
0
0
0
0
0
0
0
0
0
0
0
0
0
0
0
0
0
0
0
0
0
0
0
0
0
0
0
0
0
0
0
0
0
0
0
0
0
0
0
0
0
0
0
0
0
0
0
0
0
0
0
0
0
0
0
0
0
0
0
0
0
0
0
0
0
0
0
0
0
0
0
0
0
0
0
0
0
0
0
0
0
0
0
0
0
0
0
0
0
0
0
0
0
0
0
0
0
0
0
0
0
0
0
0
0
0
0
0
0
0
0
0
0
0
0
0
0
0
0
0
0
0
0
0
0
0
0
0
0
0
0
0
0
0
0
0
0
0
0
0
0
0
0
0
0
0
0
0
0
0
0
0
0
0
0
0
0
0
0
0
0
0
0
0
0
0
0
0
0
0
0
0
0
0
0
0
0
0
0
0
0
0
0
0
0
0
0
0
0
0
0
0
0
0
0
0
0
0
0
0
0
0
0
0
0
0
0
0
0
0
0
0
0
0
0
0
0
0
0
0
0
0
0
0
0
0
0
0
0
0
0
0
0
0
0
0
0
0
0
0
0
0
0
0
0
0
0
0
0
0
0
0
0
0
0
0
0
0
0
0
0
0
0
0
0
0
0
0
0
0
0
0
0
0
0
0
0
0
0
0
0
0
0
0
0
0
0
0
0
0
0
0
0
0
0
0
0
0
0
0
0
0
0
0
0
0
0
0
0
0
0
0
0
0
0
0
0
0
0
0
0
0
0
0
0
0
0
0
0
0
0
0
0
0
0
0
0
0
0
0
0
0
0
0
0
0
0
0
0
0
0
0
0
0
0
0
0
0
0
0
0
0
0
0
0
0
0
0
0
0
0
0
0
0
0
0
0
0
0
0
0
0
0
0
0
0
0
0
0
0
0
0
0
0
0
0
0
0
0
0
0
0
0
0
0
0
0
0
0
0
0
0
0
0
0
0
0
0
0
0
0
0
0
0
0
0
0
0
0
0
0
0
0
0
0
0
0
0
0
0
0
0
0
0
0
0
0
0
0
0
0
0
0
0
0
0
0
0
0
0
0
0
0
0
0
0
0
0
0
0
0
0
0
0
0
0
0
0
0
0
0
0
0
0
0
0
0
0
0
0
0
0
0
0
0
0
0
0
0
0
0
0
0
0
0
0
0
0
0
0
0
0
0
0
0
0
0
0
0
0
0
0
0
0
0
0
0
0
0
0
0
0
0
0
0
0
0
0
0
0
0
0
0
0
0
0
0
0
0
0
0
0
0
0
0
0
0
0
0
0
0
0
0
0
0
0
0
0
0
0
0
0
0
0
0
0
0
0
0
0
0
0
0
0
0
0
0
0
0
0
0
0
0
0
0
0
0
0
0
0
0
0
0
0
0
0
0
0
0
0
0
0
0
0
0
0
0
0
0
0
0
0
0
0
0
0
0
0
0
0
0
0
0
0
0
0
0
0
0
0
0
0
0
0
0
0
0
0
0
0
0
0
0
0
0
0
0
0
0
0
0
0
0
0
0
0
0
0
0
0
0
0
0
0
0
0
0
0
0
0
0
0
0
0
0
0
0
0
0
0
0
0
0
0
0
0
0
0
0
0
0
0
0
0
0
0
0
0
0
0
0
0
0
0
0
0
0
0
0
0
0
0
0
0
0
0
0
0
0
0
0
0
0
0
0
0
0
0
0
0
0
0
0
0
0
0
0
0
0
0
0
0
0
0
0
0
0
0
0
0
0
0
0
0
0
0
0
0
0
0
0
0
0
0
0
0
0
0
0
0
0
0
0
0
0
0
0
0
0
0
0
0
0
0
0
0
0
0
0
0
0
0
0
0
0
0
0
0
0
0
0
0
0
0
0
0
0
0
0
0
0
0
0
0
0
0
0
0
0
0
0
0
0
0
0
0
0
0
0
0
0
0
0
0
0
0
0
0
0
0
0
0
0
0
0
0
0
0
0
0
0
0
0
0
0
0
0
0
0
0
0
0
0
0
0
0
0
0
0
0
0
0
0
0
0
0
0
0
0
0
0
0
0
0
0
0
0
0
0
0
0
0
0
0
0
0
0
0
0
0
0
0
0
0
0
0
0
0
0
0
0
0
0
0
0
0
0
0
0
0
0
0
0
0
0
0
0
0
0
0
0
0
0
0
0
0
0
0
0
0
0
0
0
0
0
0
0
0
0
0
0
0
0
0
0
0
0
0
0
0
0
0
0
0
0
0
0
0
0
0
0
0
0
0
0
0
0
0
0
0
0
0
0
0
0
0
0
0
0
0
0
0
0
0
0
0
0
0
0
0
0
0
0
0
0
0
0
0
0
0
0
0
0
0
0
0
0
0
0
0
0
0
0
0
0
0
0
0
0
0
0
0
0
0
0
0
0
0
0
0
0
0
0
0
0
0
0
0
0
0
0
0
0
0
0
0
0
0
0
0
0
0
0
0
0
0
0
0
0
0
0
0
0
0
0
0
0
0
0
0
0
0
0
0
0
0
0
0
0
0
0
0
0
0
0
0
0
0
0
0
0
0
0
0
0
0
0
0
0
0
0
0
0
0
0
0
0
0
0
0
0
0
0
0
0
0
0
0
0
0
0
0
0
0
0
0
0
0
0
0
0
0
0
0
0
0
0
0
0
0
0
0
0
0
0
0
0
0
0
0
0
0
0
0
0
0
0
0
0
0
0
0
0
0
0
0
0
0
0
0
0
0
0
0
0
0
0
0
0
0
0
0
0
0
0
0
0
0
0
0
0
0
0
0
0
0
0
0
0
0
0
0
0
0
0
0
0
0
0
0
0
0
0
0
0
0
0
0
0
0
0
0
0
0
0
0
0
0
0
0
0
0
0
0
0
0
0
0
0
0
0
0
0
0
0
0
0
0
0
0
0
0
0
0
0
0
0
0
0
0
0
0
0
0
0
0
0
0
0
0
0
0
0
0
0
0
0
0
0
0
0
0
0
0
0
0
0
0
0
0
0
0
0
0
0
0
0
0
0
0
0
0
0
0
0
0
0
0
0
0
0
0
0
0
0
0
0
0
0
0
0
0
0
0
0
0
0
0
0
0
0
0
0
0
0
0
0
0
0
0
0
0
0
0
0
0
0
0
0
0
0
0
0
0
0
0
0
0
0
0
0
0
0
0
0
0
0
0
0
0
0
0
0
0
0
0
0
0
0
0
0
0
0
0
0
0
0
0
0
0
0
0
0
0
0
0
0
0
0
0
0
0
0
0
0
0
0
0
0
0
0
0
0
0
0
0
0
0
0
0
0
0
0
0
0
0
0
0
0
0
0
0
0
0
0
0
0
0
0
0
0
0
0
0
0
0
0
0
0
0
0
0
0
0
0
0
0
0
0
0
0
0
0
0
0
0
0
0
0
0
0
0
0
0
0
0
0
0
0
0
0
0
0
0
0
0
0
0
0
0
0
0
0
0
0
0
0
0
0
0
0
0
0
0
0
0
0
0
0
0
0
0
0
0
0
0
0
0
0
0
0
0
0
0
0
0
0
0
0
0
0
0
0
0
0
0
0
0
0
0
0
0
0
0
0
0
0
0
0
0
0
0
0
0
0
0
0
0
0
0
0
0
0
0
0
0
0
0
0
0
0
0
0
0
0
0
0
0
0
0
0
0
0
0
0
0
0
0
0
0
0
0
0
0
0
0
0
0
0
0
0
0
0
0
0
0
0
0
0
0
0
0
0
0
0
0
0
0
0
0
0
0
0
0
0
0
0
0
0
0
0
0
0
0
0
0
0
0
0
0
0
0
0
0
0
0
0
0
0
0
0
0
0
0
0
0
0
0
0
0
0
0
0
0
0
0
0
0
0
0
0
0
0
0
0
0
0
0
0
0
0
0
0
0
0
0
0
0
0
0
0
0
0
0
0
0
0
0
0
0
0
0
0
0
0
0
0
0
0
0
0
0
0
0
0
0
0
0
0
0
0
0
0
0
0
0
0
0
0
0
0
0
0
0
0
0
0
0
0
0
0
0
0
0
0
0
0
0
0
0
0
0
0
0
0
0
0
0
0
0
0
0
0
0
0
0
0
0
0
0
0
0
0
0
0
0
0
0
0
0
0
0
0
0
0
0
0
0
0
0
0
0
0
0
0
0
0
0
0
0
0
0
0
0
0
0
0
0
0
0
0
0
0
0
0
0
0
0
0
0
0
0
0
0
0
0
0
0
0
0
0
0
0
0
0
0
0
0
0
0
0
0
0
0
0
0
0
0
0
0
0
0
0
0
0
0
0
0
0
0
0
0
0
0
0
0
0
0
0
0
0
0
0
0
0
0
0
0
0
0
0
0
0
0
0
0
0
0
0
0
0
0
0
0
0
0
0
0
0
0
0
0
0
0
0
0
0
0
0
0
0
0
0
0
0
0
0
0
0
0
0
0
0
0
0
0
0
0
0
0
0
0
0
0
0
0
0
0
0
0
0
0
0
0
0
0
0
0
0
0
0
0
0
0
0
0
0
0
0
0
0
0
0
0
0
0
0
0
0
0
0
0
0
0
0
0
0
0
0
0
0
0
0
0
0
0
0
0
0
0
0
0
0
0
0
0
0
0
0
0
0
0
0
0
0
0
0
0
0
0
0
0
0
0
0
0
0
0
0
0
0
0
0
0
0
0
0
0
0
0
0
0
0
0
0
0
0
0
0
0
0
0
0
0
0
0
0
0
0
0
0
0
0
0
0
0
0
0
0
0
0
0
0
0
0
0
0
0
0
0
0
0
0
0
0
0
0
0
0
0
0
0
0
0
0
0
0
0
0
0
0
0
0
0
0
0
0
0
0
0
0
0
0
0
0
0
0
0
0
0
0
0
0
0
0
0
0
0
0
0
0
0
0
0
0
0
0
0
0
0
0
0
0
0
0
0
0
0
0
0
0
0
0
0
0
0
0
0
0
0
0
0
0
0
0
0
0
0
0
0
0
0
0
0
0
0
0
0
0
0
0
0
0
0
0
0
0
0
0
0
0
0
0
0
0
0
0
0
0
0
0
0
0
0
0
0
0
0
0
0
0
0
0
0
0
0
0
0
0
0
0
0
0
0
0
0
0
0
0
0
0
0
0
0
0
0
0
0
0
0
0
0
0
0
0
0
0
0
0
0
0
0
0
0
0
0
0
0
0
0
0
0
0
0
0
0
0
0
0
0
0
0
0
0
0
0
0
0
0
0
0
0
0
0
0
0
0
0
0
0
0
0
0
0
0
0
0
0
0
0
0
0
0
0
0
0
0
0
0
0
0
0
0
0
0
0
0
0
0
0
0
0
0
0
0
0
0
0
0
0
0
0
0
0
0
0
0
0
0
0
0
0
0
0
0
0
0
0
0
0
0
0
0
0
0
0
0
0
0
0
0
0
0
0
0
0
0
0
0
0
0
0
0
0
0
0
0
0
0
0
0
0
0
0
0
0
0
0
0
0
0
0
0
0
0
0
0
0
0
0
0
0
0
0
0
0
0
0
0
0
0
0
0
0
0
0
0
0
0
0
0
0
0
0
0
0
0
0
0
0
0
0
0
0
0
0
0
0
0
0
0
0
0
0
0
0
0
0
0
0
0
0
0
0
0
0
0
0
0
0
0
0
0
0
0
0
0
0
0
0
0
0
0
0
0
0
0
0
0
0
0
0
0
0
0
0
0
0
0
0
0
0
0
0
0
0
0
0
0
0
0
0
0
0
0
0
0
0
0
0
0
0
0
0
0
0
0
0
0
0
0
0
0
0
0
0
0
0
0
0
0
0
0
0
0
0
0
0
0
0
0
0
0
0
0
0
0
0
0
0
0
0
0
0
0
0
0
0
0
0
0
0
0
0
0
0
0
0
0
0
0
0
0
0
0
0
0
0
0
0
0
0
0
0
0
0
0
0
0
0
0
0
0
0
0
0
0
0
0
0
0
0
0
0
0
0
0
0
0
0
0
0
0
0
0
0
0
0
0
0
0
0
0
0
0
0
0
0
0
0
0
0
0
0
0
0
0
0
0
0
0
0
0
0
0
0
0
0
0
0
0
0
0
0
0
0
0
0
0
0
0
0
0
0
0
0
0
0
0
0
0
0
0
0
0
0
0
0
0
0
0
0
0
0
0
0
0
0
0
0
0
0
0
0
0
0
0
0
0
0
0
0
0
0
0
0
0
0
0
0
0
0
0
0
0
0
0
0
0
0
0
0
0
0
0
0
0
0
0
0
0
0
0
0
0
0
0
0
0
0
0
0
0
0
0
0
0
0
0
0
0
0
0
0
0
0
0
0
0
0
0
0
0
0
0
0
0
0
0
0
0
0
0
0
0
0
0
0
0
0
0
0
0
0
0
0
0
0
0
0
0
0
0
0
0
0
0
0
0
0
0
0
0
0
0
0
0
0
0
0
0
0
0
0
0
0
0
0
0
0
0
0
0
0
0
0
0
0
0
0
0
0
0
0
0
0
0
0
0
0
0
0
0
0
0
0
0
0
0
0
0
0
0
0
0
0
0
0
0
0
0
0
0
0
0
0
0
0
0
0
0
0
0
0
0
0
0
0
0
0
0
0
0
0
0
0
0
0
0
0
0
0
0
0
0
0
0
0
0
0
0
0
0
0
0
0
0
0
0
0
0
0
0
0
0
0
0
0
0
0
0
0
0
0
0
0
0
0
0
0
0
0
0
0
0
0
0
0
0
0
0
0
0
0
0
0
0
0
0
0
0
0
0
0
0
0
0
0
0
0
0
0
0
0
0
0
0
0
0
0
0
0
0
0
0
0
0
0
0
0
0
0
0
0
0
0
0
0
0
0
0
0
0
0
0
0
0
0
0
0
0
0
0
0
0
0
0
0
0
0
0
0
0
0
0
0
0
0
0
0
0
0
0
0
0
0
0
0
0
0
0
0
0
0
0
0
0
0
0
0
0
0
0
0
0
0
0
0
0
0
0
0
0
0
0
0
0
0
0
0
0
0
0
0
0
0
0
0
0
0
0
0
0
0
0
0
0
0
0
0
0
0
0
0
0
0
0
0
0
0
0
0
0
0
0
0
0
0
0
0
0
0
0
0
0
0
0
0
0
0
0
0
0
0
0
0
0
0
0
0
0
0
0
0
0
0
0
0
0
0
0
0
0
0
0
0
0
0
0
0
0
0
0
0
0
0
0
0
0
0
0
0
0
0
0
0
0
0
0
0
0
0
0
0
0
0
0
0
0
0
0
0
0
0
0
0
0
0
0
0
0
0
0
0
0
0
0
0
0
0
0
0
0
0
0
0
0
0
0
0
0
0
0
0
0
0
0
0
0
0
0
0
0
0
0
0
0
0
0
0
0
0
0
0
0
0
0
0
0
0
0
0
0
0
0
0
0
0
0
0
0
0
0
0
0
0
0
0
0
0
0
0
0
0
0
0
0
0
0
0
0
0
0
0
0
0
0
0
0
0
0
0
0
0
0
0
0
0
0
0
0
0
0
0
0
0
0
0
0
0
0
0
0
0
0
0
0
0
0
0
0
0
0
0
0
0
0
0
0
0
0
0
0
0
0
0
0
0
0
0
0
0
0
0
0
0
0
0
0
0
0
0
0
0
0
0
0
0
0
0
0
0
0
0
0
0
0
0
0
0
0
0
0
0
0
0
0
0
0
0
0
0
0
0
0
0
0
0
0
0
0
0
0
0
0
0
0
0
0
0
0
0
0
0
0
0
0
0
0
0
0
0
0
0
0
0
0
0
0
0
0
0
0
0
0
0
0
0
0
0
0
0
0
0
0
0
0
0
0
0
0
0
0
0
0
0
0
0
0
0
0
0
0
0
0
0
0
0
0
0
0
0
0
0
0
0
0
0
0
0
0
0
0
0
0
0
0
0
0
0
0
0
0
0
0
0
0
0
0
0
0
0
0
0
0
0
0
0
0
0
0
0
0
0
0
0
0
0
0
0
0
0
0
0
0
0
0
0
0
0
0
0
0
0
0
0
0
0
0
0
0
0
0
0
0
0
0
0
0
0
0
0
0
0
0
0
0
0
0
0
0
0
0
0
0
0
0
0
0
0
0
0
0
0
0
0
0
0
0
0
0
0
0
0
0
0
0
0
0
0
0
0
0
0
0
0
0
0
0
0
0
0
0
0
0
0
0
0
0
0
0
0
0
0
0
0
0
0
0
0
0
0
0
0
0
0
0
0
0
0
0
0
0
0
0
0
0
0
0
0
0
0
0
0
0
0
0
0
0
0
0
0
0
0
0
0
0
0
0
0
0
0
0
0
0
0
0
0
0
0
0
0
0
0
0
0
0
0
0
0
0
0
0
0
0
0
0
0
0
0
0
0
0
0
0
0
0
0
0
0
0
0
0
0
0
0
0
0
0
0
0
0
0
0
0
0
0
0
0
0
0
0
0
0
0
0
0
0
0
0
0
0
0
0
0
0
0
0
0
0
0
0
0
0
0
0
0
0
0
0
0
0
0
0
0
0
0
0
0
0
0
0
0
0
0
0
0
0
0
0
0
0
0
0
0
0
0
0
0
0
0
0
0
0
0
0
0
0
0
0
0
0
0
0
0
0
0
0
0
0
0
0
0
0
0
0
0
0
0
0
0
0
0
0
0
0
0
0
0
0
0
0
0
0
0
0
0
0
0
0
0
0
0
0
0
0
0
0
0
0
0
0
0
0
0
0
0
0
0
0
0
0
0
0
0
0
0
0
0
0
0
0
0
0
0
0
0
0
0
0
0
0
0
0
0
0
0
0
0
0
0
0
0
0
0
0
0
0
0
0
0
0
0
0
0
0
0
0
0
0
0
0
0
0
0
0
0
0
0
0
0
0
0
0
0
0
0
0
0
0
0
0
0
0
0
0
0
0
0
0
0
0
0
0
0
0
0
0
0
0
0
0
0
0
0
0
0
0
0
0
0
0
0
0
0
0
0
0
0
0
0
0
0
0
0
0
0
0
0
0
0
0
0
0
0
0
0
0
0
0
0
0
0
0
0
0
0
0
0
0
0
0
0
0
0
0
0
0
0
0
0
0
0
0
0
0
0
0
0
0
0
0
0
0
0
0
0
0
0
0
0
0
0
0
0
0
0
0
0
0
0
0
0
0
1.01794e-12
1.23784e-12
1.41762e-12
1.55354e-12
1.645e-12
1.69955e-12
1.72977e-12
1.74639e-12
1.75475e-12
1.7549e-12
1.74423e-12
1.7223e-12
1.69235e-12
1.65843e-12
1.62377e-12
1.59174e-12
1.56504e-12
1.54542e-12
1.5344e-12
0
0
0
0
0
0
0
0
0
0
0
0
0
0
0
0
0
0
0
0
0
1.26047e-12
1.81249e-12
2.36592e-12
2.85644e-12
3.25337e-12
3.54795e-12
3.74207e-12
3.85675e-12
3.92105e-12
3.95677e-12
3.97432e-12
3.97389e-12
3.95029e-12
3.90344e-12
3.8396e-12
3.76596e-12
3.68965e-12
3.61818e-12
3.55863e-12
3.51543e-12
3.49287e-12
0
0
0
0
0
0
0
0
0
0
0
0
0
0
0
0
0
0
0
0
1.8024e-12
2.89722e-12
4.13344e-12
5.3588e-12
6.4351e-12
7.29946e-12
7.93314e-12
8.34391e-12
8.58336e-12
8.71695e-12
8.78985e-12
8.82314e-12
8.81739e-12
8.76498e-12
8.6678e-12
8.53471e-12
8.37712e-12
8.21144e-12
8.056e-12
7.92718e-12
7.83471e-12
7.7875e-12
0
0
0
0
0
0
0
0
0
0
0
0
0
0
0
0
0
0
0
2.18589e-12
4.06013e-12
6.46132e-12
9.15554e-12
1.18089e-11
1.41349e-11
1.60034e-11
1.7367e-11
1.82444e-11
1.87521e-11
1.90314e-11
1.91778e-11
1.92369e-11
1.92134e-11
1.90993e-11
1.88988e-11
1.86204e-11
1.82845e-11
1.79297e-11
1.75995e-11
1.73285e-11
1.71337e-11
1.70339e-11
0
0
0
0
0
0
0
0
0
0
0
0
0
0
0
0
0
0
2.19378e-12
4.90673e-12
8.9338e-12
1.40697e-11
1.97969e-11
2.54251e-11
3.03813e-11
3.43686e-11
3.72685e-11
3.91384e-11
4.02238e-11
4.08126e-11
4.11081e-11
4.12158e-11
4.11533e-11
4.09118e-11
4.04935e-11
3.99055e-11
3.91943e-11
3.84484e-11
3.77636e-11
3.72052e-11
3.67971e-11
3.65836e-11
0
0
0
0
0
0
0
0
0
0
0
0
0
0
0
0
0
1.52828e-12
4.87033e-12
1.07464e-11
1.93323e-11
3.0133e-11
4.20534e-11
5.3785e-11
6.41777e-11
7.25196e-11
7.85767e-11
8.25125e-11
8.47979e-11
8.60076e-11
8.65976e-11
8.68062e-11
8.66726e-11
8.61713e-11
8.52903e-11
8.40462e-11
8.25582e-11
8.1021e-11
7.9629e-11
7.84937e-11
7.76432e-11
7.71868e-11
0
0
0
0
0
0
0
0
0
0
0
0
0
0
0
0
0
3.79447e-12
1.09522e-11
2.33211e-11
4.12546e-11
6.35529e-11
8.79668e-11
1.1201e-10
1.33301e-10
1.50343e-10
1.62786e-10
1.70942e-10
1.7566e-10
1.78113e-10
1.79308e-10
1.79753e-10
1.79509e-10
1.78489e-10
1.76651e-10
1.74058e-10
1.71002e-10
1.67894e-10
1.65102e-10
1.62807e-10
1.6105e-10
1.6009e-10
0
0
0
0
0
0
0
0
0
0
0
0
0
0
0
0
1.08523e-12
7.96284e-12
2.3523e-11
4.97197e-11
8.68763e-11
1.32402e-10
1.81915e-10
2.30354e-10
2.72884e-10
3.06838e-10
3.317e-10
3.47982e-10
3.57402e-10
3.62383e-10
3.64903e-10
3.6594e-10
3.65587e-10
3.6359e-10
3.59857e-10
3.54581e-10
3.48432e-10
3.42256e-10
3.36718e-10
3.32116e-10
3.28568e-10
3.26635e-10
0
0
0
0
0
0
0
0
0
0
0
0
0
0
0
0
2.87575e-12
1.72901e-11
5.01013e-11
1.04576e-10
1.80456e-10
2.72276e-10
3.71331e-10
4.6708e-10
5.50358e-10
6.16725e-10
6.65009e-10
6.963e-10
7.1452e-10
7.24579e-10
7.29937e-10
7.32336e-10
7.32032e-10
7.28419e-10
7.21168e-10
7.1076e-10
6.98695e-10
6.86645e-10
6.75785e-10
6.66697e-10
6.59762e-10
6.56071e-10
0
0
0
0
0
0
0
0
0
0
0
0
0
0
0
0
7.16779e-12
3.78048e-11
1.05844e-10
2.16997e-10
3.69444e-10
5.51938e-10
7.46679e-10
9.32567e-10
1.09307e-09
1.22028e-09
1.31166e-09
1.37052e-09
1.40545e-09
1.42552e-09
1.43642e-09
1.44154e-09
1.44176e-09
1.43575e-09
1.42233e-09
1.40253e-09
1.37951e-09
1.35636e-09
1.33526e-09
1.31758e-09
1.30437e-09
1.2976e-09
0
0
0
0
0
0
0
0
0
0
0
0
0
0
0
0
1.70975e-11
8.21422e-11
2.206e-10
4.42619e-10
7.42905e-10
1.09861e-09
1.47376e-09
1.8285e-09
2.13362e-09
2.3738e-09
2.54501e-09
2.65604e-09
2.72373e-09
2.76292e-09
2.78393e-09
2.79408e-09
2.79567e-09
2.7858e-09
2.76174e-09
2.72552e-09
2.68277e-09
2.63894e-09
2.59847e-09
2.56471e-09
2.54001e-09
2.52776e-09
0
0
0
0
0
0
0
0
0
0
0
0
0
0
0
1.14671e-12
3.89392e-11
1.75133e-10
4.52586e-10
8.88382e-10
1.46968e-09
2.15056e-09
2.86016e-09
3.52538e-09
4.09491e-09
4.54117e-09
4.86013e-09
5.07076e-09
5.20173e-09
5.27674e-09
5.3164e-09
5.33631e-09
5.34071e-09
5.32402e-09
5.28216e-09
5.21819e-09
5.14037e-09
5.05856e-09
4.98232e-09
4.91909e-09
4.87324e-09
4.85076e-09
0
0
0
0
0
0
0
0
0
0
0
0
0
0
0
3.52238e-12
8.66874e-11
3.66538e-10
9.12158e-10
1.75225e-09
2.85842e-09
4.13931e-09
5.45995e-09
6.68974e-09
7.73782e-09
8.55674e-09
9.14549e-09
9.54034e-09
9.78747e-09
9.92872e-09
1.00046e-08
1.00443e-08
1.00545e-08
1.00267e-08
9.95581e-09
9.84396e-09
9.70334e-09
9.55344e-09
9.41343e-09
9.29761e-09
9.21319e-09
9.17133e-09
0
0
0
0
0
0
0
0
0
0
0
0
0
0
0
8.43104e-12
1.87e-10
7.52364e-10
1.80749e-09
3.40126e-09
5.47453e-09
7.84745e-09
1.02717e-08
1.25198e-08
1.44291e-08
1.59156e-08
1.69846e-08
1.77019e-08
1.8149e-08
1.84076e-08
1.85514e-08
1.86292e-08
1.8652e-08
1.86096e-08
1.84908e-08
1.82938e-08
1.80421e-08
1.77744e-08
1.75254e-08
1.73197e-08
1.71678e-08
1.70907e-08
0
0
0
0
0
0
0
0
0
0
0
0
0
0
1.70175e-12
2.90526e-11
3.99954e-10
1.5039e-09
3.50775e-09
6.48694e-09
1.03172e-08
1.46563e-08
1.90609e-08
2.31319e-08
2.65747e-08
2.92433e-08
3.1152e-08
3.24182e-08
3.31995e-08
3.3657e-08
3.39181e-08
3.40619e-08
3.41123e-08
3.40514e-08
3.38499e-08
3.35025e-08
3.30596e-08
3.25918e-08
3.21587e-08
3.17997e-08
3.15303e-08
3.13899e-08
0
0
0
0
0
0
0
0
0
0
0
0
0
0
5.24868e-12
9.07972e-11
8.4371e-10
2.94328e-09
6.67759e-09
1.21571e-08
1.9127e-08
2.69651e-08
3.48906e-08
4.21804e-08
4.83107e-08
5.30439e-08
5.64083e-08
5.86121e-08
5.99559e-08
6.07416e-08
6.11916e-08
6.14434e-08
6.15452e-08
6.1453e-08
6.11045e-08
6.04986e-08
5.97287e-08
5.89175e-08
5.81692e-08
5.75452e-08
5.70683e-08
5.68124e-08
0
0
0
0
0
0
0
0
0
0
0
0
0
0
1.26866e-11
2.3957e-10
1.74012e-09
5.66464e-09
1.2507e-08
2.2421e-08
3.49113e-08
4.88827e-08
6.29571e-08
7.58274e-08
8.65935e-08
9.48818e-08
1.00749e-07
1.04565e-07
1.06873e-07
1.08208e-07
1.08969e-07
1.09405e-07
1.09594e-07
1.0944e-07
1.08843e-07
1.07802e-07
1.06468e-07
1.05058e-07
1.03762e-07
1.02676e-07
1.01839e-07
1.01382e-07
0
0
0
0
0
0
0
0
0
0
0
0
0
1.90522e-12
2.81606e-11
5.69334e-10
3.503e-09
1.07259e-08
2.30707e-08
4.0734e-08
6.27919e-08
8.73318e-08
1.11939e-07
1.34339e-07
1.53018e-07
1.67367e-07
1.77501e-07
1.84074e-07
1.88029e-07
1.90292e-07
1.91584e-07
1.92335e-07
1.92655e-07
1.92384e-07
1.91369e-07
1.89592e-07
1.87288e-07
1.84848e-07
1.82607e-07
1.80729e-07
1.79289e-07
1.78501e-07
0
0
0
0
0
0
0
0
0
0
0
0
0
6.22759e-12
6.14597e-11
1.26119e-09
6.87795e-09
1.99693e-08
4.19158e-08
7.29291e-08
1.11331e-07
1.53787e-07
1.96144e-07
2.34579e-07
2.66571e-07
2.91116e-07
3.08454e-07
3.1972e-07
3.26506e-07
3.3039e-07
3.32633e-07
3.33942e-07
3.34495e-07
3.34037e-07
3.32305e-07
3.29257e-07
3.25311e-07
3.2113e-07
3.17283e-07
3.14078e-07
3.11654e-07
3.10346e-07
0
0
0
0
0
0
0
0
0
0
0
0
0
1.54379e-11
1.29481e-10
2.64998e-09
1.31923e-08
3.65684e-08
7.50145e-08
1.28702e-07
1.94659e-07
2.6712e-07
3.39054e-07
4.04162e-07
4.58295e-07
4.99796e-07
5.29131e-07
5.48272e-07
5.59909e-07
5.66665e-07
5.70618e-07
5.72919e-07
5.73886e-07
5.73121e-07
5.70122e-07
5.64888e-07
5.58165e-07
5.51047e-07
5.44503e-07
5.3911e-07
5.35082e-07
5.32938e-07
0
0
0
0
0
0
0
0
0
0
0
0
1.56151e-12
3.40656e-11
2.60017e-10
5.34047e-09
2.47678e-08
6.58812e-08
1.32274e-07
2.24006e-07
3.35854e-07
4.57969e-07
5.78668e-07
6.87697e-07
7.78287e-07
8.47702e-07
8.96798e-07
9.28982e-07
9.48793e-07
9.60464e-07
9.67367e-07
9.71399e-07
9.73086e-07
9.71787e-07
9.66636e-07
9.57765e-07
9.46424e-07
9.34458e-07
9.23508e-07
9.14587e-07
9.07952e-07
9.04449e-07
0
0
0
0
0
0
0
0
0
0
0
0
5.74507e-12
7.21268e-11
5.08191e-10
1.04068e-08
4.55577e-08
1.16816e-07
2.30017e-07
3.84895e-07
5.72324e-07
7.75767e-07
9.76102e-07
1.1567e-06
1.30656e-06
1.42131e-06
1.50262e-06
1.55617e-06
1.58938e-06
1.60911e-06
1.62084e-06
1.62775e-06
1.63065e-06
1.62849e-06
1.61987e-06
1.60506e-06
1.58617e-06
1.56636e-06
1.54831e-06
1.5337e-06
1.52283e-06
1.51713e-06
0
0
0
0
0
0
0
0
0
0
0
0
1.42585e-11
1.46029e-10
9.77907e-10
1.97157e-08
8.22181e-08
2.04094e-07
3.94763e-07
6.53101e-07
9.6352e-07
1.29878e-06
1.62786e-06
1.92383e-06
2.1689e-06
2.35642e-06
2.48959e-06
2.57749e-06
2.63199e-06
2.66469e-06
2.68419e-06
2.69567e-06
2.70052e-06
2.69709e-06
2.68315e-06
2.65901e-06
2.62834e-06
2.59626e-06
2.56695e-06
2.54316e-06
2.52538e-06
2.51608e-06
0
0
0
0
0
0
0
0
0
0
0
0
3.06465e-11
2.88271e-10
1.83244e-09
3.63939e-08
1.45948e-07
3.52007e-07
6.69392e-07
1.09528e-06
1.60367e-06
2.15028e-06
2.68511e-06
3.16483e-06
3.56125e-06
3.86445e-06
4.07984e-06
4.22156e-06
4.30885e-06
4.36202e-06
4.39361e-06
4.41192e-06
4.41946e-06
4.4138e-06
4.39164e-06
4.35351e-06
4.30528e-06
4.25448e-06
4.20765e-06
4.16917e-06
4.14019e-06
4.12488e-06
0
0
0
0
0
0
0
0
0
0
0
3.46975e-12
6.4455e-11
5.68919e-10
4.70868e-09
6.70896e-08
2.54873e-07
5.99139e-07
1.12176e-06
1.81625e-06
2.63971e-06
3.52096e-06
4.38016e-06
5.14868e-06
5.78278e-06
6.26746e-06
6.61133e-06
6.83676e-06
6.97462e-06
7.05924e-06
7.10881e-06
7.13698e-06
7.14794e-06
7.13852e-06
7.10417e-06
7.04578e-06
6.97161e-06
6.89241e-06
6.81871e-06
6.75755e-06
6.71125e-06
6.68629e-06
0
0
0
0
0
0
0
0
0
0
0
9.88374e-12
1.34588e-10
1.09782e-09
1.24786e-08
1.23576e-07
4.39043e-07
1.00681e-06
1.85798e-06
2.97849e-06
4.29792e-06
5.70253e-06
7.06648e-06
8.28306e-06
9.28479e-06
1.00487e-05
1.05895e-05
1.09449e-05
1.11621e-05
1.12933e-05
1.13683e-05
1.1411e-05
1.14269e-05
1.14121e-05
1.13599e-05
1.12711e-05
1.11568e-05
1.10336e-05
1.09187e-05
1.08236e-05
1.07518e-05
1.07125e-05
0
0
0
0
0
0
0
0
0
0
0
2.35776e-11
2.71552e-10
2.07618e-09
2.92392e-08
2.24297e-07
7.46157e-07
1.66957e-06
3.03867e-06
4.82623e-06
6.91701e-06
9.1301e-06
1.127e-05
1.31729e-05
1.47353e-05
1.5923e-05
1.67614e-05
1.73142e-05
1.7653e-05
1.78538e-05
1.79672e-05
1.80322e-05
1.80566e-05
1.80358e-05
1.79574e-05
1.78214e-05
1.76439e-05
1.74527e-05
1.72756e-05
1.71309e-05
1.70236e-05
1.69645e-05
0
0
0
0
0
0
0
0
0
0
1.64232e-12
5.30519e-11
5.46852e-10
3.90517e-09
6.19103e-08
3.99268e-07
1.25202e-06
2.73404e-06
4.90921e-06
7.72795e-06
1.10016e-05
1.4447e-05
1.77647e-05
2.07041e-05
2.31093e-05
2.49329e-05
2.62157e-05
2.70585e-05
2.75783e-05
2.78823e-05
2.80546e-05
2.81523e-05
2.81923e-05
2.81647e-05
2.80469e-05
2.78365e-05
2.75609e-05
2.72668e-05
2.69963e-05
2.67804e-05
2.66234e-05
2.65385e-05
0
0
0
0
0
0
0
0
0
0
6.91968e-12
1.15578e-10
1.07744e-09
7.1816e-09
1.22193e-07
6.96318e-07
2.07309e-06
4.42399e-06
7.83851e-06
1.22233e-05
1.72782e-05
2.25724e-05
2.76484e-05
3.21263e-05
3.57789e-05
3.85431e-05
4.04824e-05
4.17489e-05
4.25355e-05
4.29909e-05
4.32528e-05
4.34013e-05
4.34692e-05
4.34334e-05
4.32569e-05
4.29349e-05
4.25154e-05
4.20706e-05
4.16623e-05
4.13418e-05
4.11122e-05
4.09926e-05
0
0
0
0
0
0
0
0
0
0
1.79289e-11
2.36516e-10
2.05099e-09
1.28584e-08
2.29279e-07
1.19051e-06
3.38686e-06
7.0731e-06
1.23631e-05
1.90875e-05
2.67855e-05
3.48059e-05
4.24563e-05
4.91785e-05
5.46476e-05
5.87755e-05
6.16649e-05
6.35444e-05
6.47112e-05
6.53873e-05
6.57817e-05
6.60082e-05
6.61168e-05
6.60634e-05
6.57998e-05
6.53192e-05
6.46985e-05
6.40383e-05
6.34289e-05
6.29511e-05
6.26083e-05
6.24365e-05
0
0
0
0
0
0
0
0
0
0
3.92042e-11
4.68053e-10
3.76566e-09
2.23425e-08
4.14347e-07
1.99807e-06
5.45572e-06
1.11568e-05
1.92342e-05
2.94022e-05
4.09561e-05
5.29092e-05
6.42465e-05
7.41759e-05
8.22357e-05
8.83012e-05
9.25378e-05
9.52838e-05
9.69792e-05
9.79811e-05
9.85694e-05
9.89092e-05
9.90656e-05
9.89787e-05
9.85942e-05
9.79017e-05
9.70069e-05
9.60429e-05
9.51452e-05
9.44321e-05
9.39128e-05
9.36572e-05
0
0
0
0
0
0
0
0
0
3.60187e-12
8.4636e-11
9.03581e-10
6.71723e-09
3.83108e-08
7.30832e-07
3.30615e-06
8.68083e-06
1.73775e-05
2.95383e-05
4.46926e-05
6.17548e-05
7.92601e-05
9.5764e-05
0.000110156
0.000121794
0.000130529
0.000136622
0.000140559
0.000142962
0.000144402
0.000145243
0.000145725
0.000145925
0.000145779
0.000145228
0.000144262
0.000143003
0.000141624
0.000140327
0.000139278
0.000138501
0.000138115
0
0
0
0
0
0
0
0
0
1.11864e-11
1.75435e-10
1.67929e-09
1.18795e-08
6.50437e-08
1.2663e-06
5.40905e-06
1.36615e-05
2.67417e-05
4.47724e-05
6.69744e-05
9.16994e-05
0.000116841
0.000140379
0.000160774
0.000177181
0.000189464
0.000198022
0.000203543
0.000206879
0.000208874
0.000210024
0.00021067
0.000210906
0.000210672
0.000209886
0.000208555
0.000206812
0.000204886
0.000203061
0.000201561
0.000200433
0.000199857
0
0
0
0
0
0
0
0
0
2.67986e-11
3.45819e-10
3.11769e-09
2.09049e-08
1.07982e-07
2.15795e-06
8.76051e-06
2.12765e-05
4.06565e-05
6.69333e-05
9.88302e-05
0.000133918
0.000169247
0.000202045
0.000230257
0.000252824
0.000269645
0.000281324
0.000288859
0.000293383
0.00029605
0.000297548
0.000298363
0.000298615
0.000298263
0.000297162
0.000295358
0.000292996
0.000290393
0.000287915
0.000285869
0.000284315
0.000283495
0
0
0
0
0
0
0
0
1.2251e-12
5.60713e-11
6.70106e-10
5.6522e-09
3.60966e-08
2.58738e-07
3.67411e-06
1.39199e-05
3.25782e-05
6.07916e-05
9.83309e-05
0.000143169
0.000191834
0.000240273
0.000284808
0.000322832
0.000353069
0.000375447
0.000390866
0.000400824
0.000406779
0.000410218
0.000412081
0.000413046
0.000413277
0.000412756
0.000411233
0.000408803
0.000405645
0.000402181
0.000398876
0.00039616
0.000394088
0.00039296
0
0
0
0
0
0
0
0
5.54612e-12
1.1495e-10
1.24194e-09
9.78447e-09
5.99844e-08
6.68272e-07
6.20448e-06
2.15855e-05
4.88107e-05
8.9058e-05
0.000141536
0.000203137
0.000269025
0.000333819
0.000392841
0.000442919
0.000482578
0.000511816
0.000531866
0.000544763
0.00055239
0.000556732
0.000559037
0.000560182
0.000560387
0.000559616
0.000557592
0.000554448
0.000550396
0.000545937
0.000541642
0.000538127
0.00053545
0.000533974
0
0
0
0
0
0
0
0
1.39198e-11
2.11231e-10
2.11234e-09
1.60477e-08
9.38746e-08
1.38415e-06
1.00556e-05
3.25202e-05
7.1238e-05
0.000127269
0.000198932
0.000281619
0.000368726
0.000453299
0.000529545
0.000593653
0.00064401
0.000680897
0.000706036
0.000722067
0.000731475
0.000736757
0.000739545
0.000740854
0.000740918
0.000739663
0.000736939
0.000732868
0.000727756
0.000722151
0.00071674
0.000712329
0.000708962
0.000707111
0
0
0
0
0
0
0
0
2.64208e-11
3.54497e-10
3.41403e-09
2.46969e-08
1.38882e-07
2.49012e-06
1.55964e-05
4.7602e-05
0.000101378
0.000177533
0.000272982
0.000381119
0.000493366
0.000601263
0.000697957
0.000778979
0.000842534
0.000889191
0.000921181
0.000941732
0.000953976
0.000960818
0.000964398
0.00096596
0.000965889
0.000964126
0.000960645
0.000955469
0.000949078
0.000942042
0.000935168
0.000929475
0.000925161
0.000922811
0
0
0
0
0
0
0
0
4.41248e-11
5.66198e-10
5.13451e-09
3.55831e-08
1.97231e-07
4.18009e-06
2.34309e-05
6.78572e-05
0.000140564
0.000241389
0.00036562
0.000504475
0.00064697
0.000782392
0.000902562
0.00100269
0.00108097
0.00113831
0.00117736
0.00120224
0.00121722
0.00122573
0.00123018
0.00123197
0.00123169
0.00122936
0.00122502
0.00121869
0.00121099
0.00120256
0.00119433
0.00118745
0.00118214
0.00117928
0
0
0
0
0
0
0
2.16468e-12
7.31876e-11
8.51138e-10
7.31306e-09
5.00386e-08
2.72312e-07
6.66487e-06
3.42089e-05
9.44975e-05
0.000190891
0.000322269
0.000481553
0.000656424
0.000832506
0.000997641
0.00114366
0.00126573
0.00136186
0.00143263
0.00148095
0.00151169
0.00153021
0.00154076
0.00154625
0.00154836
0.00154788
0.00154491
0.00153954
0.00153181
0.0015225
0.00151233
0.00150244
0.00149405
0.00148755
0.00148403
0
0
0
0
0
0
0
5.81387e-12
1.13974e-10
1.22478e-09
1.04633e-08
7.01166e-08
3.68278e-07
1.0236e-05
4.90464e-05
0.000129875
0.000255903
0.000423831
0.000622725
0.00083674
0.00105032
0.00125081
0.00142865
0.00157776
0.00169552
0.00178271
0.00184281
0.00188138
0.00190458
0.00191766
0.0019244
0.00192693
0.00192631
0.00192264
0.00191607
0.00190671
0.00189548
0.00188316
0.00187115
0.00186088
0.0018529
0.0018486
0
0
0
0
0
0
0
1.11921e-11
1.70949e-10
1.82586e-09
1.51015e-08
9.6486e-08
4.93028e-07
1.563e-05
7.00288e-05
0.000176969
0.000338386
0.000547698
0.000790669
0.00104985
0.0013085
0.00155201
0.00176859
0.0019506
0.00209483
0.00220224
0.00227703
0.00232548
0.00235464
0.00237092
0.00237916
0.00238217
0.00238136
0.0023769
0.00236901
0.00235792
0.00234447
0.00232962
0.00231496
0.00230234
0.00229252
0.00228725
0
0
0
0
0
0
0
1.73061e-11
2.56242e-10
2.63247e-09
2.06647e-08
1.28904e-07
6.44025e-07
2.36685e-05
9.92175e-05
0.000237986
0.000440116
0.000696502
0.000990966
0.00130445
0.00161813
0.00191421
0.00217792
0.00240008
0.00257691
0.00270945
0.00280252
0.00286332
0.00290003
0.0029204
0.00293048
0.00293395
0.00293273
0.00292728
0.00291786
0.00290488
0.00288898
0.00287134
0.00285368
0.00283834
0.00282632
0.00281985
0
0
0
0
0
0
0
2.6491e-11
3.69189e-10
3.5759e-09
2.76574e-08
1.73719e-07
1.78699e-06
3.58878e-05
0.000137479
0.000313532
0.000562618
0.000874444
0.00123159
0.00161224
0.00199347
0.00235345
0.0026747
0.00294592
0.00316224
0.00332455
0.0034388
0.0035139
0.00355946
0.00358476
0.00359715
0.0036014
0.00359996
0.0035937
0.00358282
0.00356781
0.00354913
0.00352808
0.00350669
0.00348806
0.00347349
0.0034657
0
0
0
0
0
0
0
3.21527e-11
4.3043e-10
4.2435e-09
3.34149e-08
2.08029e-07
4.70967e-06
5.24991e-05
0.000183413
0.000403285
0.000709177
0.00108924
0.00152412
0.00198794
0.00245204
0.00288997
0.0032802
0.00360914
0.0038713
0.00406831
0.00420721
0.00429856
0.00435409
0.0043848
0.00439971
0.00440484
0.00440325
0.00439621
0.00438382
0.00436662
0.00434495
0.00432018
0.00429465
0.00427231
0.00425464
0.00424517
0
0
0
0
0
0
0
3.0958e-11
4.60095e-10
4.74607e-09
3.82224e-08
2.41012e-07
8.65388e-06
7.25654e-05
0.000237111
0.000509038
0.000885047
0.00135139
0.00188415
0.00245085
0.00301579
0.00354564
0.00401497
0.00440862
0.0047212
0.0049555
0.0051201
0.00522823
0.00529404
0.00533018
0.00534749
0.00535332
0.00535149
0.00534362
0.00532977
0.00531035
0.00528569
0.00525716
0.00522747
0.00520124
0.00518012
0.00516869
0
0
0
0
0
0
0
2.68597e-11
4.31012e-10
4.65213e-09
3.92563e-08
2.52189e-07
1.30207e-05
9.5839e-05
0.000301576
0.000638873
0.00110439
0.00167994
0.00233368
0.00302398
0.0037055
0.00433798
0.00489231
0.00535297
0.0057161
0.00598676
0.00617607
0.00629944
0.00637416
0.00641539
0.00643487
0.00644115
0.00643887
0.00643002
0.00641463
0.00639298
0.00636563
0.00633369
0.00630021
0.00627025
0.00624561
0.0062322
0
0
0
0
0
0
0
1.87487e-11
3.61851e-10
4.25986e-09
3.80343e-08
2.49748e-07
1.7841e-05
0.000124433
0.000384631
0.000808053
0.00138838
0.00209986
0.0028986
0.00372956
0.00453719
0.00527481
0.00591208
0.00643498
0.00684315
0.00714524
0.00735532
0.00749115
0.00757295
0.00761815
0.00763934
0.00764591
0.00764315
0.00763326
0.00761633
0.00759263
0.00756313
0.00752842
0.00749166
0.0074583
0.00743041
0.00741524
0
0
0
0
0
0
0
9.87101e-12
2.77164e-10
3.70158e-09
3.5263e-08
2.31239e-07
2.46236e-05
0.000164438
0.000498698
0.00103569
0.00176085
0.00263501
0.00359782
0.00457861
0.00551155
0.00634685
0.00705594
0.00762949
0.00807254
0.008398
0.00862309
0.00876794
0.00885414
0.00890137
0.00892377
0.0089306
0.0089275
0.00891685
0.00889881
0.00887361
0.00884271
0.0088061
0.00876691
0.00873079
0.00870016
0.00868351
0
0
0
0
0
0
0
3.39736e-12
2.04875e-10
3.11157e-09
3.11515e-08
1.95042e-07
3.57655e-05
0.000223334
0.00065615
0.00133728
0.00223697
0.00329563
0.004433
0.00556184
0.00660832
0.00752412
0.00828691
0.00889507
0.00936011
0.0096996
0.00993352
0.0100834
0.0101715
0.0102191
0.010242
0.0102493
0.0102464
0.0102357
0.0102173
0.0101916
0.0101604
0.0101231
0.0100828
0.0100452
0.0100128
0.00999503
0
0
0
0
0
0
0
0
1.56828e-10
2.66973e-09
2.60562e-08
1.462e-07
5.44964e-05
0.000310125
0.000868531
0.00172225
0.00282073
0.00407672
0.00538733
0.00665022
0.0077891
0.00876215
0.00955678
0.0101812
0.0106546
0.0109985
0.0112348
0.0113861
0.0114752
0.0115227
0.0115451
0.0115531
0.0115517
0.0115423
0.0115251
0.0115006
0.0114708
0.0114346
0.011395
0.0113577
0.011325
0.0113068
0
0
0
0
0
0
0
0
1.34998e-10
2.34061e-09
2.03531e-08
9.92182e-08
8.40881e-05
0.000432248
0.00114249
0.00219202
0.00350412
0.00495966
0.00642979
0.00780379
0.00900826
0.0100119
0.0108151
0.0114384
0.0119074
0.0122463
0.0124793
0.0126293
0.0127183
0.0127664
0.0127898
0.0127994
0.0128003
0.0127938
0.0127802
0.0127596
0.0127337
0.0127011
0.0126647
0.0126302
0.012599
0.012581
0
0
0
0
0
0
0
0
1.17116e-10
1.96774e-09
1.49645e-08
6.39863e-08
0.000127609
0.000596172
0.00148277
0.00274453
0.00427288
0.00591522
0.00752347
0.0089808
0.0102218
0.011229
0.01202
0.0126267
0.013079
0.0134057
0.0136315
0.0137783
0.013867
0.0139166
0.0139423
0.0139546
0.0139596
0.0139589
0.0139519
0.0139383
0.0139196
0.0138933
0.0138618
0.0138317
0.0138043
0.0137876
0
0
0
0
0
0
0
0
1.32109e-10
1.78867e-09
1.1035e-08
4.01538e-08