/*--------------------------------*- C++ -*----------------------------------*\
| =========                 |                                                 |
| \\      /  F ield         | OpenFOAM: The Open Source CFD Toolbox           |
|  \\    /   O peration     | Version:  2406                                  |
|   \\  /    A nd           | Website:  www.openfoam.com                      |
|    \\/     M anipulation  |                                                 |
\*---------------------------------------------------------------------------*/
FoamFile
{
    version     2.0;
    format      ascii;
    arch        "LSB;label=32;scalar=64";
    class       volScalarField;
    location    "0";
    object      Cx;
}
// * * * * * * * * * * * * * * * * * * * * * * * * * * * * * * * * * * * * * //

dimensions      [0 1 0 0 0 0 0];

internalField   nonuniform List<scalar> 
18000
(
0.00346481
0.0103784
0.0172599
0.0241094
0.0309272
0.0377133
0.0444679
0.0511912
0.0578833
0.0645443
0.0711744
0.0777737
0.0843424
0.0908806
0.0973884
0.103866
0.110314
0.116731
0.123119
0.129477
0.135806
0.142105
0.148375
0.154616
0.160828
0.167012
0.173166
0.179292
0.18539
0.191459
0.1975
0.203513
0.209498
0.215455
0.221385
0.227287
0.233161
0.239009
0.244829
0.250622
0.256389
0.262128
0.267841
0.273528
0.279188
0.284822
0.290429
0.296011
0.301567
0.307097
0.312601
0.31808
0.323533
0.328961
0.334364
0.339741
0.345094
0.350422
0.355725
0.361004
0.366258
0.371487
0.376693
0.381874
0.387031
0.392165
0.397274
0.40236
0.407422
0.41246
0.417476
0.422468
0.427437
0.432382
0.437305
0.442205
0.447082
0.451937
0.456769
0.461578
0.466366
0.471131
0.475874
0.480595
0.485294
0.489971
0.494627
0.499261
0.503873
0.508464
0.513034
0.517582
0.52211
0.526616
0.531102
0.535566
0.54001
0.544434
0.548836
0.553219
0.557581
0.561923
0.566244
0.570546
0.574827
0.579089
0.583331
0.587554
0.591756
0.595939
0.600103
0.604248
0.608373
0.612479
0.616566
0.620634
0.624683
0.628714
0.632725
0.636718
0.640693
0.644649
0.648587
0.652506
0.656407
0.660291
0.664156
0.668003
0.671832
0.675644
0.679438
0.683214
0.686973
0.690714
0.694438
0.698145
0.701834
0.705507
0.709162
0.7128
0.716422
0.720026
0.723614
0.727185
0.73074
0.734278
0.7378
0.741305
0.744795
0.748268
0.00346491
0.0103787
0.0172604
0.0241101
0.030928
0.0377144
0.0444691
0.0511926
0.0578848
0.064546
0.0711762
0.0777757
0.0843445
0.0908828
0.0973908
0.103869
0.110316
0.116734
0.123122
0.12948
0.135809
0.142108
0.148379
0.15462
0.160832
0.167015
0.173169
0.179295
0.185393
0.191462
0.197503
0.203516
0.209501
0.215458
0.221388
0.22729
0.233164
0.239012
0.244832
0.250625
0.256392
0.262131
0.267844
0.27353
0.27919
0.284824
0.290431
0.296013
0.301569
0.307098
0.312602
0.318081
0.323534
0.328962
0.334365
0.339742
0.345095
0.350423
0.355726
0.361004
0.366258
0.371487
0.376693
0.381874
0.387031
0.392164
0.397273
0.402359
0.407421
0.412459
0.417475
0.422466
0.427435
0.432381
0.437303
0.442203
0.44708
0.451935
0.456767
0.461576
0.466364
0.471129
0.475871
0.480592
0.485291
0.489968
0.494624
0.499258
0.50387
0.508461
0.513031
0.517579
0.522107
0.526613
0.531098
0.535563
0.540007
0.54443
0.548833
0.553215
0.557578
0.561919
0.566241
0.570543
0.574824
0.579086
0.583328
0.58755
0.591753
0.595936
0.6001
0.604245
0.60837
0.612476
0.616563
0.620631
0.62468
0.628711
0.632723
0.636716
0.64069
0.644646
0.648584
0.652504
0.656405
0.660288
0.664154
0.668001
0.67183
0.675642
0.679436
0.683212
0.686971
0.690713
0.694437
0.698143
0.701833
0.705505
0.709161
0.712799
0.716421
0.720025
0.723613
0.727185
0.73074
0.734278
0.7378
0.741305
0.744794
0.748268
0.003465
0.010379
0.0172608
0.0241107
0.0309288
0.0377153
0.0444703
0.0511939
0.0578863
0.0645476
0.071178
0.0777776
0.0843465
0.090885
0.0973931
0.103871
0.110319
0.116737
0.123125
0.129483
0.135812
0.142111
0.148382
0.154623
0.160835
0.167018
0.173172
0.179298
0.185396
0.191465
0.197506
0.203519
0.209504
0.215461
0.221391
0.227293
0.233167
0.239015
0.244835
0.250628
0.256394
0.262134
0.267846
0.273533
0.279192
0.284826
0.290433
0.296015
0.30157
0.3071
0.312604
0.318082
0.323535
0.328963
0.334366
0.339743
0.345096
0.350423
0.355726
0.361004
0.366258
0.371488
0.376693
0.381874
0.387031
0.392164
0.397273
0.402358
0.40742
0.412458
0.417473
0.422465
0.427434
0.432379
0.437302
0.442202
0.447079
0.451933
0.456765
0.461574
0.466361
0.471126
0.475869
0.48059
0.485289
0.489966
0.494621
0.499255
0.503867
0.508458
0.513028
0.517576
0.522104
0.52661
0.531095
0.53556
0.540004
0.544427
0.54883
0.553212
0.557574
0.561916
0.566238
0.570539
0.574821
0.579083
0.583325
0.587547
0.59175
0.595933
0.600097
0.604242
0.608367
0.612473
0.61656
0.620628
0.624678
0.628708
0.63272
0.636713
0.640688
0.644644
0.648582
0.652502
0.656403
0.660286
0.664152
0.667999
0.671828
0.67564
0.679434
0.683211
0.68697
0.690711
0.694435
0.698142
0.701832
0.705504
0.70916
0.712798
0.71642
0.720025
0.723613
0.727184
0.730739
0.734277
0.737799
0.741305
0.744794
0.748267
0.00346508
0.0103792
0.0172612
0.0241113
0.0309296
0.0377162
0.0444713
0.0511951
0.0578876
0.0645491
0.0711796
0.0777793
0.0843484
0.090887
0.0973952
0.103873
0.110321
0.116739
0.123127
0.129486
0.135815
0.142114
0.148384
0.154625
0.160838
0.167021
0.173175
0.179301
0.185399
0.191468
0.197509
0.203522
0.209507
0.215464
0.221393
0.227295
0.23317
0.239017
0.244837
0.25063
0.256397
0.262136
0.267849
0.273535
0.279195
0.284828
0.290435
0.296017
0.301572
0.307102
0.312605
0.318084
0.323537
0.328964
0.334367
0.339744
0.345096
0.350424
0.355727
0.361005
0.366258
0.371488
0.376693
0.381874
0.38703
0.392163
0.397272
0.402358
0.407419
0.412458
0.417472
0.422464
0.427433
0.432378
0.4373
0.4422
0.447077
0.451931
0.456763
0.461572
0.466359
0.471124
0.475867
0.480588
0.485286
0.489964
0.494619
0.499253
0.503865
0.508456
0.513025
0.517574
0.522101
0.526607
0.531093
0.535557
0.540001
0.544424
0.548827
0.55321
0.557572
0.561913
0.566235
0.570537
0.574818
0.57908
0.583322
0.587544
0.591747
0.59593
0.600094
0.604239
0.608364
0.61247
0.616558
0.620626
0.624675
0.628706
0.632718
0.636711
0.640686
0.644642
0.64858
0.652499
0.656401
0.660284
0.66415
0.667997
0.671827
0.675638
0.679433
0.683209
0.686968
0.69071
0.694434
0.698141
0.701831
0.705503
0.709159
0.712797
0.716419
0.720024
0.723612
0.727184
0.730739
0.734277
0.737799
0.741305
0.744794
0.748267
0.00346516
0.0103794
0.0172616
0.0241118
0.0309303
0.0377171
0.0444723
0.0511962
0.0578889
0.0645505
0.0711811
0.077781
0.0843502
0.0908889
0.0973972
0.103875
0.110323
0.116741
0.123129
0.129488
0.135817
0.142117
0.148387
0.154628
0.16084
0.167023
0.173178
0.179304
0.185402
0.191471
0.197512
0.203525
0.209509
0.215467
0.221396
0.227298
0.233173
0.23902
0.24484
0.250633
0.256399
0.262138
0.267851
0.273537
0.279196
0.28483
0.290437
0.296018
0.301574
0.307103
0.312607
0.318085
0.323538
0.328965
0.334368
0.339745
0.345097
0.350424
0.355727
0.361005
0.366259
0.371488
0.376693
0.381873
0.38703
0.392163
0.397272
0.402357
0.407419
0.412457
0.417472
0.422463
0.427431
0.432377
0.437299
0.442199
0.447075
0.45193
0.456761
0.461571
0.466357
0.471122
0.475865
0.480586
0.485284
0.489961
0.494617
0.49925
0.503862
0.508453
0.513023
0.517571
0.522098
0.526605
0.53109
0.535555
0.539998
0.544422
0.548824
0.553207
0.557569
0.561911
0.566232
0.570534
0.574816
0.579077
0.583319
0.587542
0.591745
0.595928
0.600092
0.604236
0.608362
0.612468
0.616555
0.620623
0.624673
0.628703
0.632715
0.636709
0.640683
0.64464
0.648578
0.652497
0.656399
0.660282
0.664148
0.667995
0.671825
0.675637
0.679431
0.683208
0.686967
0.690708
0.694433
0.69814
0.70183
0.705502
0.709158
0.712797
0.716418
0.720023
0.723612
0.727183
0.730738
0.734277
0.737799
0.741305
0.744794
0.748267
0.00346523
0.0103797
0.017262
0.0241124
0.0309309
0.0377178
0.0444732
0.0511973
0.0578901
0.0645518
0.0711825
0.0777825
0.0843518
0.0908906
0.097399
0.103877
0.110325
0.116743
0.123132
0.12949
0.135819
0.142119
0.148389
0.15463
0.160843
0.167026
0.173181
0.179307
0.185404
0.191473
0.197514
0.203527
0.209512
0.215469
0.221399
0.2273
0.233175
0.239022
0.244842
0.250635
0.256401
0.26214
0.267853
0.273539
0.279198
0.284832
0.290439
0.29602
0.301575
0.307104
0.312608
0.318086
0.323539
0.328966
0.334368
0.339746
0.345098
0.350425
0.355727
0.361005
0.366259
0.371488
0.376693
0.381873
0.38703
0.392162
0.397271
0.402356
0.407418
0.412456
0.417471
0.422462
0.42743
0.432376
0.437298
0.442197
0.447074
0.451928
0.45676
0.461569
0.466356
0.47112
0.475863
0.480584
0.485282
0.489959
0.494614
0.499248
0.50386
0.508451
0.513021
0.517569
0.522096
0.526602
0.531088
0.535552
0.539996
0.544419
0.548822
0.553204
0.557566
0.561908
0.56623
0.570531
0.574813
0.579075
0.583317
0.587539
0.591742
0.595925
0.600089
0.604234
0.608359
0.612466
0.616553
0.620621
0.624671
0.628701
0.632713
0.636707
0.640681
0.644638
0.648576
0.652496
0.656397
0.660281
0.664146
0.667994
0.671823
0.675635
0.67943
0.683206
0.686965
0.690707
0.694432
0.698139
0.701829
0.705501
0.709157
0.712796
0.716418
0.720023
0.723611
0.727183
0.730738
0.734276
0.737799
0.741304
0.744794
0.748267
0.0034653
0.0103799
0.0172623
0.0241128
0.0309315
0.0377186
0.0444741
0.0511982
0.0578912
0.064553
0.0711839
0.077784
0.0843534
0.0908922
0.0974008
0.103879
0.110327
0.116745
0.123134
0.129492
0.135821
0.142121
0.148392
0.154633
0.160845
0.167028
0.173183
0.179309
0.185406
0.191476
0.197517
0.203529
0.209514
0.215471
0.221401
0.227303
0.233177
0.239024
0.244844
0.250637
0.256403
0.262142
0.267855
0.273541
0.2792
0.284833
0.29044
0.296021
0.301576
0.307106
0.312609
0.318087
0.32354
0.328967
0.334369
0.339746
0.345098
0.350425
0.355728
0.361006
0.366259
0.371488
0.376693
0.381873
0.38703
0.392162
0.397271
0.402356
0.407417
0.412455
0.41747
0.422461
0.427429
0.432374
0.437297
0.442196
0.447073
0.451927
0.456758
0.461567
0.466354
0.471119
0.475861
0.480582
0.48528
0.489957
0.494612
0.499246
0.503858
0.508449
0.513018
0.517567
0.522094
0.5266
0.531085
0.53555
0.539994
0.544417
0.54882
0.553202
0.557564
0.561906
0.566227
0.570529
0.574811
0.579072
0.583315
0.587537
0.59174
0.595923
0.600087
0.604232
0.608357
0.612464
0.616551
0.620619
0.624669
0.628699
0.632711
0.636705
0.640679
0.644636
0.648574
0.652494
0.656396
0.660279
0.664145
0.667992
0.671822
0.675634
0.679428
0.683205
0.686964
0.690706
0.69443
0.698138
0.701828
0.7055
0.709156
0.712795
0.716417
0.720022
0.72361
0.727182
0.730737
0.734276
0.737798
0.741304
0.744794
0.748267
0.00346537
0.0103801
0.0172627
0.0241133
0.0309321
0.0377193
0.0444749
0.0511992
0.0578922
0.0645541
0.0711851
0.0777853
0.0843548
0.0908938
0.0974024
0.103881
0.110329
0.116747
0.123136
0.129494
0.135823
0.142123
0.148394
0.154635
0.160847
0.167031
0.173185
0.179311
0.185409
0.191478
0.197519
0.203532
0.209517
0.215474
0.221403
0.227305
0.233179
0.239026
0.244846
0.250639
0.256405
0.262144
0.267856
0.273542
0.279202
0.284835
0.290442
0.296023
0.301578
0.307107
0.31261
0.318088
0.323541
0.328968
0.33437
0.339747
0.345099
0.350426
0.355728
0.361006
0.366259
0.371488
0.376693
0.381873
0.387029
0.392162
0.39727
0.402355
0.407417
0.412455
0.417469
0.42246
0.427428
0.432373
0.437296
0.442195
0.447071
0.451925
0.456757
0.461566
0.466353
0.471117
0.47586
0.48058
0.485279
0.489955
0.494611
0.499244
0.503856
0.508447
0.513016
0.517565
0.522092
0.526598
0.531083
0.535548
0.539991
0.544415
0.548817
0.5532
0.557562
0.561903
0.566225
0.570527
0.574808
0.57907
0.583312
0.587535
0.591738
0.595921
0.600085
0.60423
0.608355
0.612461
0.616549
0.620617
0.624667
0.628697
0.632709
0.636703
0.640678
0.644634
0.648572
0.652492
0.656394
0.660278
0.664143
0.667991
0.671821
0.675633
0.679427
0.683204
0.686963
0.690705
0.694429
0.698137
0.701827
0.7055
0.709155
0.712794
0.716416
0.720022
0.72361
0.727182
0.730737
0.734276
0.737798
0.741304
0.744794
0.748267
0.00346543
0.0103802
0.017263
0.0241137
0.0309326
0.0377199
0.0444757
0.0512
0.0578932
0.0645552
0.0711863
0.0777866
0.0843562
0.0908952
0.0974039
0.103882
0.110331
0.116749
0.123137
0.129496
0.135825
0.142125
0.148396
0.154637
0.160849
0.167033
0.173187
0.179313
0.185411
0.19148
0.197521
0.203534
0.209519
0.215476
0.221405
0.227307
0.233181
0.239028
0.244848
0.250641
0.256407
0.262146
0.267858
0.273544
0.279203
0.284836
0.290443
0.296024
0.301579
0.307108
0.312611
0.318089
0.323542
0.328969
0.334371
0.339747
0.345099
0.350426
0.355729
0.361006
0.366259
0.371488
0.376693
0.381873
0.387029
0.392161
0.39727
0.402355
0.407416
0.412454
0.417468
0.422459
0.427427
0.432372
0.437294
0.442194
0.44707
0.451924
0.456755
0.461564
0.466351
0.471116
0.475858
0.480578
0.485277
0.489954
0.494609
0.499242
0.503854
0.508445
0.513014
0.517563
0.52209
0.526596
0.531081
0.535546
0.539989
0.544413
0.548815
0.553198
0.55756
0.561901
0.566223
0.570525
0.574806
0.579068
0.58331
0.587533
0.591736
0.595919
0.600083
0.604228
0.608353
0.61246
0.616547
0.620615
0.624665
0.628696
0.632708
0.636701
0.640676
0.644633
0.648571
0.652491
0.656392
0.660276
0.664142
0.66799
0.671819
0.675632
0.679426
0.683203
0.686962
0.690704
0.694429
0.698136
0.701826
0.705499
0.709155
0.712794
0.716416
0.720021
0.72361
0.727181
0.730737
0.734276
0.737798
0.741304
0.744794
0.748267
0.00346548
0.0103804
0.0172632
0.0241141
0.0309331
0.0377205
0.0444764
0.0512008
0.0578941
0.0645562
0.0711874
0.0777878
0.0843574
0.0908966
0.0974053
0.103884
0.110332
0.116751
0.123139
0.129498
0.135827
0.142127
0.148397
0.154639
0.160851
0.167034
0.173189
0.179315
0.185413
0.191482
0.197523
0.203536
0.20952
0.215477
0.221407
0.227309
0.233183
0.23903
0.24485
0.250642
0.256408
0.262147
0.267859
0.273545
0.279205
0.284838
0.290444
0.296025
0.30158
0.307109
0.312612
0.31809
0.323542
0.328969
0.334371
0.339748
0.3451
0.350427
0.355729
0.361006
0.366259
0.371488
0.376692
0.381873
0.387029
0.392161
0.39727
0.402354
0.407416
0.412453
0.417468
0.422459
0.427427
0.432372
0.437294
0.442193
0.447069
0.451923
0.456754
0.461563
0.46635
0.471114
0.475857
0.480577
0.485275
0.489952
0.494607
0.499241
0.503853
0.508443
0.513013
0.517561
0.522088
0.526594
0.531079
0.535544
0.539988
0.544411
0.548813
0.553196
0.557558
0.561899
0.566221
0.570523
0.574804
0.579066
0.583308
0.587531
0.591734
0.595917
0.600081
0.604226
0.608351
0.612458
0.616545
0.620614
0.624663
0.628694
0.632706
0.6367
0.640675
0.644631
0.648569
0.652489
0.656391
0.660275
0.664141
0.667988
0.671818
0.67563
0.679425
0.683202
0.686961
0.690703
0.694428
0.698135
0.701825
0.705498
0.709154
0.712793
0.716415
0.720021
0.723609
0.727181
0.730736
0.734275
0.737798
0.741304
0.744794
0.748267
0.00346554
0.0103806
0.0172635
0.0241144
0.0309336
0.0377211
0.044477
0.0512016
0.0578949
0.0645571
0.0711884
0.0777889
0.0843586
0.0908978
0.0974066
0.103885
0.110334
0.116752
0.123141
0.129499
0.135829
0.142129
0.148399
0.154641
0.160853
0.167036
0.173191
0.179317
0.185414
0.191484
0.197525
0.203537
0.209522
0.215479
0.221409
0.22731
0.233185
0.239031
0.244851
0.250644
0.25641
0.262149
0.267861
0.273547
0.279206
0.284839
0.290446
0.296026
0.301581
0.30711
0.312613
0.318091
0.323543
0.32897
0.334372
0.339749
0.3451
0.350427
0.355729
0.361007
0.36626
0.371488
0.376692
0.381873
0.387029
0.392161
0.397269
0.402354
0.407415
0.412453
0.417467
0.422458
0.427426
0.432371
0.437293
0.442192
0.447068
0.451922
0.456753
0.461562
0.466348
0.471113
0.475855
0.480576
0.485274
0.489951
0.494606
0.499239
0.503851
0.508442
0.513011
0.517559
0.522086
0.526592
0.531078
0.535542
0.539986
0.544409
0.548812
0.553194
0.557556
0.561898
0.566219
0.570521
0.574803
0.579064
0.583307
0.587529
0.591732
0.595915
0.600079
0.604224
0.60835
0.612456
0.616544
0.620612
0.624662
0.628692
0.632705
0.636698
0.640673
0.64463
0.648568
0.652488
0.65639
0.660274
0.664139
0.667987
0.671817
0.675629
0.679424
0.683201
0.68696
0.690702
0.694427
0.698134
0.701824
0.705497
0.709153
0.712793
0.716415
0.72002
0.723609
0.727181
0.730736
0.734275
0.737797
0.741304
0.744794
0.748267
0.00346559
0.0103807
0.0172637
0.0241148
0.030934
0.0377216
0.0444777
0.0512023
0.0578957
0.064558
0.0711894
0.0777899
0.0843597
0.090899
0.0974079
0.103886
0.110335
0.116753
0.123142
0.129501
0.13583
0.14213
0.148401
0.154642
0.160854
0.167038
0.173193
0.179319
0.185416
0.191485
0.197526
0.203539
0.209524
0.215481
0.22141
0.227312
0.233186
0.239033
0.244853
0.250645
0.256411
0.26215
0.267862
0.273548
0.279207
0.28484
0.290447
0.296027
0.301582
0.307111
0.312614
0.318092
0.323544
0.328971
0.334372
0.339749
0.345101
0.350427
0.355729
0.361007
0.36626
0.371488
0.376692
0.381873
0.387029
0.392161
0.397269
0.402354
0.407415
0.412452
0.417466
0.422457
0.427425
0.43237
0.437292
0.442191
0.447067
0.451921
0.456752
0.461561
0.466347
0.471112
0.475854
0.480574
0.485273
0.489949
0.494604
0.499238
0.50385
0.50844
0.513009
0.517558
0.522085
0.526591
0.531076
0.53554
0.539984
0.544407
0.54881
0.553192
0.557554
0.561896
0.566218
0.570519
0.574801
0.579063
0.583305
0.587527
0.59173
0.595914
0.600078
0.604223
0.608348
0.612455
0.616542
0.62061
0.62466
0.628691
0.632703
0.636697
0.640672
0.644628
0.648567
0.652487
0.656389
0.660272
0.664138
0.667986
0.671816
0.675628
0.679423
0.6832
0.686959
0.690701
0.694426
0.698134
0.701824
0.705497
0.709153
0.712792
0.716414
0.72002
0.723608
0.72718
0.730736
0.734275
0.737797
0.741304
0.744793
0.748267
0.00346563
0.0103809
0.017264
0.0241151
0.0309344
0.0377221
0.0444782
0.051203
0.0578965
0.0645588
0.0711903
0.0777909
0.0843607
0.0909001
0.097409
0.103888
0.110336
0.116755
0.123143
0.129502
0.135832
0.142132
0.148402
0.154644
0.160856
0.16704
0.173194
0.17932
0.185418
0.191487
0.197528
0.203541
0.209525
0.215482
0.221412
0.227313
0.233188
0.239034
0.244854
0.250647
0.256412
0.262151
0.267863
0.273549
0.279208
0.284841
0.290448
0.296028
0.301583
0.307112
0.312615
0.318093
0.323545
0.328971
0.334373
0.33975
0.345101
0.350428
0.35573
0.361007
0.36626
0.371488
0.376692
0.381872
0.387028
0.39216
0.397269
0.402353
0.407414
0.412452
0.417466
0.422457
0.427424
0.432369
0.437291
0.44219
0.447066
0.45192
0.456751
0.46156
0.466346
0.47111
0.475853
0.480573
0.485271
0.489948
0.494603
0.499236
0.503848
0.508439
0.513008
0.517556
0.522083
0.526589
0.531074
0.535539
0.539982
0.544406
0.548808
0.553191
0.557553
0.561894
0.566216
0.570518
0.574799
0.579061
0.583303
0.587526
0.591729
0.595912
0.600076
0.604221
0.608347
0.612453
0.616541
0.620609
0.624659
0.62869
0.632702
0.636695
0.64067
0.644627
0.648565
0.652486
0.656387
0.660271
0.664137
0.667985
0.671815
0.675627
0.679422
0.683199
0.686959
0.690701
0.694425
0.698133
0.701823
0.705496
0.709152
0.712792
0.716414
0.720019
0.723608
0.72718
0.730736
0.734275
0.737797
0.741303
0.744793
0.748267
0.00346568
0.010381
0.0172642
0.0241154
0.0309348
0.0377226
0.0444788
0.0512036
0.0578972
0.0645596
0.0711911
0.0777918
0.0843617
0.0909011
0.0974101
0.103889
0.110337
0.116756
0.123145
0.129504
0.135833
0.142133
0.148404
0.154645
0.160858
0.167041
0.173196
0.179322
0.185419
0.191488
0.197529
0.203542
0.209527
0.215484
0.221413
0.227315
0.233189
0.239036
0.244855
0.250648
0.256414
0.262152
0.267865
0.27355
0.279209
0.284842
0.290449
0.296029
0.301584
0.307113
0.312616
0.318093
0.323545
0.328972
0.334374
0.33975
0.345101
0.350428
0.35573
0.361007
0.36626
0.371488
0.376692
0.381872
0.387028
0.39216
0.397268
0.402353
0.407414
0.412451
0.417465
0.422456
0.427424
0.432368
0.43729
0.442189
0.447065
0.451919
0.45675
0.461559
0.466345
0.471109
0.475852
0.480572
0.48527
0.489947
0.494602
0.499235
0.503847
0.508437
0.513007
0.517555
0.522082
0.526588
0.531073
0.535537
0.539981
0.544404
0.548807
0.553189
0.557551
0.561893
0.566214
0.570516
0.574798
0.57906
0.583302
0.587524
0.591727
0.595911
0.600075
0.60422
0.608345
0.612452
0.616539
0.620608
0.624657
0.628688
0.632701
0.636694
0.640669
0.644626
0.648564
0.652484
0.656386
0.66027
0.664136
0.667984
0.671814
0.675627
0.679421
0.683198
0.686958
0.6907
0.694425
0.698132
0.701823
0.705496
0.709152
0.712791
0.716413
0.720019
0.723608
0.72718
0.730735
0.734274
0.737797
0.741303
0.744793
0.748267
0.00346572
0.0103811
0.0172644
0.0241157
0.0309352
0.037723
0.0444793
0.0512042
0.0578978
0.0645603
0.0711919
0.0777926
0.0843626
0.0909021
0.0974112
0.10389
0.110339
0.116757
0.123146
0.129505
0.135834
0.142134
0.148405
0.154646
0.160859
0.167042
0.173197
0.179323
0.185421
0.19149
0.197531
0.203544
0.209528
0.215485
0.221414
0.227316
0.23319
0.239037
0.244857
0.250649
0.256415
0.262154
0.267866
0.273551
0.27921
0.284843
0.29045
0.29603
0.301585
0.307113
0.312616
0.318094
0.323546
0.328973
0.334374
0.33975
0.345102
0.350428
0.35573
0.361007
0.36626
0.371488
0.376692
0.381872
0.387028
0.39216
0.397268
0.402353
0.407413
0.412451
0.417465
0.422456
0.427423
0.432368
0.43729
0.442188
0.447065
0.451918
0.456749
0.461558
0.466344
0.471108
0.475851
0.480571
0.485269
0.489946
0.4946
0.499234
0.503846
0.508436
0.513005
0.517553
0.52208
0.526586
0.531072
0.535536
0.53998
0.544403
0.548805
0.553188
0.55755
0.561891
0.566213
0.570515
0.574796
0.579058
0.583301
0.587523
0.591726
0.595909
0.600074
0.604218
0.608344
0.61245
0.616538
0.620606
0.624656
0.628687
0.632699
0.636693
0.640668
0.644625
0.648563
0.652483
0.656385
0.660269
0.664135
0.667983
0.671813
0.675626
0.67942
0.683198
0.686957
0.690699
0.694424
0.698132
0.701822
0.705495
0.709151
0.712791
0.716413
0.720019
0.723607
0.727179
0.730735
0.734274
0.737797
0.741303
0.744793
0.748267
0.00346576
0.0103812
0.0172646
0.024116
0.0309355
0.0377234
0.0444798
0.0512047
0.0578984
0.064561
0.0711926
0.0777934
0.0843635
0.090903
0.0974121
0.103891
0.11034
0.116758
0.123147
0.129506
0.135836
0.142136
0.148406
0.154648
0.16086
0.167044
0.173198
0.179324
0.185422
0.191491
0.197532
0.203545
0.20953
0.215487
0.221416
0.227317
0.233191
0.239038
0.244858
0.25065
0.256416
0.262155
0.267867
0.273552
0.279211
0.284844
0.29045
0.296031
0.301585
0.307114
0.312617
0.318094
0.323546
0.328973
0.334374
0.339751
0.345102
0.350429
0.35573
0.361007
0.36626
0.371488
0.376692
0.381872
0.387028
0.39216
0.397268
0.402352
0.407413
0.41245
0.417464
0.422455
0.427423
0.432367
0.437289
0.442188
0.447064
0.451917
0.456748
0.461557
0.466343
0.471107
0.47585
0.48057
0.485268
0.489944
0.494599
0.499233
0.503844
0.508435
0.513004
0.517552
0.522079
0.526585
0.53107
0.535535
0.539978
0.544401
0.548804
0.553186
0.557548
0.56189
0.566212
0.570513
0.574795
0.579057
0.583299
0.587522
0.591725
0.595908
0.600072
0.604217
0.608343
0.612449
0.616537
0.620605
0.624655
0.628686
0.632698
0.636692
0.640667
0.644624
0.648562
0.652483
0.656385
0.660268
0.664134
0.667982
0.671813
0.675625
0.67942
0.683197
0.686956
0.690699
0.694424
0.698131
0.701821
0.705495
0.709151
0.71279
0.716413
0.720018
0.723607
0.727179
0.730735
0.734274
0.737797
0.741303
0.744793
0.748267
0.00346579
0.0103813
0.0172648
0.0241162
0.0309358
0.0377238
0.0444802
0.0512052
0.057899
0.0645616
0.0711933
0.0777941
0.0843643
0.0909038
0.097413
0.103892
0.110341
0.116759
0.123148
0.129507
0.135837
0.142137
0.148407
0.154649
0.160861
0.167045
0.1732
0.179326
0.185423
0.191492
0.197533
0.203546
0.209531
0.215488
0.221417
0.227319
0.233193
0.239039
0.244859
0.250651
0.256417
0.262156
0.267868
0.273553
0.279212
0.284845
0.290451
0.296032
0.301586
0.307115
0.312618
0.318095
0.323547
0.328973
0.334375
0.339751
0.345102
0.350429
0.355731
0.361008
0.36626
0.371488
0.376692
0.381872
0.387028
0.39216
0.397268
0.402352
0.407413
0.41245
0.417464
0.422455
0.427422
0.432367
0.437288
0.442187
0.447063
0.451917
0.456748
0.461556
0.466342
0.471107
0.475849
0.480569
0.485267
0.489943
0.494598
0.499232
0.503843
0.508434
0.513003
0.517551
0.522078
0.526584
0.531069
0.535533
0.539977
0.5444
0.548803
0.553185
0.557547
0.561889
0.566211
0.570512
0.574794
0.579056
0.583298
0.587521
0.591724
0.595907
0.600071
0.604216
0.608342
0.612448
0.616536
0.620604
0.624654
0.628685
0.632697
0.636691
0.640666
0.644623
0.648561
0.652482
0.656384
0.660268
0.664134
0.667982
0.671812
0.675624
0.679419
0.683196
0.686956
0.690698
0.694423
0.698131
0.701821
0.705494
0.709151
0.71279
0.716412
0.720018
0.723607
0.727179
0.730735
0.734274
0.737797
0.741303
0.744793
0.748267
0.00346582
0.0103814
0.0172649
0.0241164
0.0309361
0.0377242
0.0444806
0.0512057
0.0578995
0.0645622
0.0711939
0.0777948
0.084365
0.0909046
0.0974138
0.103893
0.110341
0.11676
0.123149
0.129508
0.135838
0.142138
0.148408
0.15465
0.160862
0.167046
0.173201
0.179327
0.185424
0.191494
0.197534
0.203547
0.209532
0.215489
0.221418
0.22732
0.233194
0.23904
0.24486
0.250652
0.256418
0.262157
0.267869
0.273554
0.279213
0.284846
0.290452
0.296032
0.301587
0.307115
0.312618
0.318096
0.323547
0.328974
0.334375
0.339751
0.345103
0.350429
0.355731
0.361008
0.36626
0.371488
0.376692
0.381872
0.387028
0.39216
0.397268
0.402352
0.407412
0.41245
0.417464
0.422454
0.427422
0.432366
0.437288
0.442186
0.447062
0.451916
0.456747
0.461555
0.466342
0.471106
0.475848
0.480568
0.485266
0.489943
0.494597
0.499231
0.503842
0.508433
0.513002
0.51755
0.522077
0.526583
0.531068
0.535532
0.539976
0.544399
0.548802
0.553184
0.557546
0.561888
0.566209
0.570511
0.574793
0.579055
0.583297
0.587519
0.591722
0.595906
0.60007
0.604215
0.608341
0.612447
0.616535
0.620603
0.624653
0.628684
0.632696
0.63669
0.640665
0.644622
0.648561
0.652481
0.656383
0.660267
0.664133
0.667981
0.671811
0.675624
0.679418
0.683196
0.686955
0.690698
0.694422
0.69813
0.701821
0.705494
0.70915
0.712789
0.716412
0.720018
0.723607
0.727179
0.730735
0.734274
0.737796
0.741303
0.744793
0.748267
0.00346585
0.0103815
0.0172651
0.0241166
0.0309364
0.0377245
0.044481
0.0512061
0.0579
0.0645628
0.0711945
0.0777955
0.0843657
0.0909054
0.0974146
0.103894
0.110342
0.116761
0.12315
0.129509
0.135839
0.142139
0.14841
0.154651
0.160863
0.167047
0.173202
0.179328
0.185425
0.191495
0.197535
0.203548
0.209533
0.21549
0.221419
0.227321
0.233195
0.239041
0.244861
0.250653
0.256419
0.262157
0.267869
0.273555
0.279214
0.284846
0.290453
0.296033
0.301587
0.307116
0.312619
0.318096
0.323548
0.328974
0.334376
0.339752
0.345103
0.350429
0.355731
0.361008
0.36626
0.371488
0.376692
0.381872
0.387028
0.392159
0.397267
0.402352
0.407412
0.412449
0.417463
0.422454
0.427421
0.432366
0.437287
0.442186
0.447062
0.451915
0.456746
0.461555
0.466341
0.471105
0.475847
0.480567
0.485265
0.489942
0.494596
0.49923
0.503841
0.508432
0.513001
0.517549
0.522076
0.526582
0.531067
0.535531
0.539975
0.544398
0.548801
0.553183
0.557545
0.561887
0.566208
0.57051
0.574792
0.579054
0.583296
0.587518
0.591721
0.595905
0.600069
0.604214
0.60834
0.612446
0.616534
0.620602
0.624652
0.628683
0.632695
0.636689
0.640664
0.644621
0.64856
0.65248
0.656382
0.660266
0.664132
0.66798
0.67181
0.675623
0.679418
0.683195
0.686955
0.690697
0.694422
0.69813
0.70182
0.705493
0.70915
0.712789
0.716412
0.720017
0.723606
0.727179
0.730734
0.734274
0.737796
0.741303
0.744793
0.748267
0.00346588
0.0103816
0.0172652
0.0241168
0.0309367
0.0377248
0.0444814
0.0512066
0.0579005
0.0645633
0.0711951
0.0777961
0.0843664
0.0909061
0.0974153
0.103894
0.110343
0.116762
0.123151
0.12951
0.13584
0.14214
0.14841
0.154652
0.160864
0.167048
0.173203
0.179329
0.185426
0.191496
0.197536
0.203549
0.209534
0.215491
0.22142
0.227322
0.233196
0.239042
0.244862
0.250654
0.25642
0.262158
0.26787
0.273556
0.279214
0.284847
0.290453
0.296034
0.301588
0.307116
0.312619
0.318096
0.323548
0.328975
0.334376
0.339752
0.345103
0.350429
0.355731
0.361008
0.36626
0.371488
0.376692
0.381872
0.387028
0.392159
0.397267
0.402351
0.407412
0.412449
0.417463
0.422453
0.427421
0.432365
0.437287
0.442185
0.447061
0.451915
0.456745
0.461554
0.46634
0.471104
0.475846
0.480566
0.485264
0.489941
0.494596
0.499229
0.503841
0.508431
0.513
0.517548
0.522075
0.526581
0.531066
0.53553
0.539974
0.544397
0.5488
0.553182
0.557544
0.561886
0.566207
0.570509
0.574791
0.579053
0.583295
0.587517
0.59172
0.595904
0.600068
0.604213
0.608339
0.612445
0.616533
0.620601
0.624651
0.628682
0.632695
0.636688
0.640664
0.64462
0.648559
0.652479
0.656381
0.660265
0.664131
0.66798
0.67181
0.675622
0.679417
0.683194
0.686954
0.690697
0.694422
0.698129
0.70182
0.705493
0.709149
0.712789
0.716411
0.720017
0.723606
0.727178
0.730734
0.734273
0.737796
0.741303
0.744793
0.748267
0.00346591
0.0103817
0.0172654
0.024117
0.0309369
0.0377251
0.0444817
0.051207
0.0579009
0.0645638
0.0711956
0.0777967
0.084367
0.0909067
0.097416
0.103895
0.110344
0.116763
0.123152
0.129511
0.13584
0.142141
0.148411
0.154653
0.160865
0.167049
0.173204
0.17933
0.185427
0.191497
0.197537
0.20355
0.209535
0.215492
0.221421
0.227322
0.233196
0.239043
0.244863
0.250655
0.25642
0.262159
0.267871
0.273556
0.279215
0.284848
0.290454
0.296034
0.301588
0.307117
0.31262
0.318097
0.323549
0.328975
0.334376
0.339752
0.345103
0.35043
0.355731
0.361008
0.36626
0.371489
0.376692
0.381872
0.387027
0.392159
0.397267
0.402351
0.407412
0.412449
0.417463
0.422453
0.42742
0.432365
0.437286
0.442185
0.447061
0.451914
0.456745
0.461553
0.46634
0.471104
0.475846
0.480566
0.485264
0.48994
0.494595
0.499228
0.50384
0.50843
0.512999
0.517547
0.522074
0.52658
0.531065
0.535529
0.539973
0.544396
0.548799
0.553181
0.557543
0.561885
0.566206
0.570508
0.57479
0.579052
0.583294
0.587516
0.591719
0.595903
0.600067
0.604212
0.608338
0.612444
0.616532
0.620601
0.62465
0.628681
0.632694
0.636688
0.640663
0.64462
0.648558
0.652479
0.656381
0.660265
0.664131
0.667979
0.671809
0.675622
0.679417
0.683194
0.686954
0.690696
0.694421
0.698129
0.701819
0.705493
0.709149
0.712789
0.716411
0.720017
0.723606
0.727178
0.730734
0.734273
0.737796
0.741303
0.744793
0.748267
0.00346594
0.0103818
0.0172655
0.0241172
0.0309371
0.0377254
0.044482
0.0512073
0.0579014
0.0645642
0.0711961
0.0777972
0.0843675
0.0909073
0.0974167
0.103896
0.110345
0.116763
0.123152
0.129512
0.135841
0.142141
0.148412
0.154654
0.160866
0.16705
0.173205
0.179331
0.185428
0.191497
0.197538
0.203551
0.209536
0.215493
0.221422
0.227323
0.233197
0.239044
0.244863
0.250656
0.256421
0.26216
0.267872
0.273557
0.279216
0.284848
0.290455
0.296035
0.301589
0.307117
0.31262
0.318097
0.323549
0.328975
0.334376
0.339753
0.345104
0.35043
0.355731
0.361008
0.366261
0.371489
0.376692
0.381872
0.387027
0.392159
0.397267
0.402351
0.407411
0.412449
0.417462
0.422453
0.42742
0.432364
0.437286
0.442184
0.44706
0.451914
0.456744
0.461553
0.466339
0.471103