/*--------------------------------*- C++ -*----------------------------------*\
| =========                 |                                                 |
| \\      /  F ield         | OpenFOAM: The Open Source CFD Toolbox           |
|  \\    /   O peration     | Version:  2406                                  |
|   \\  /    A nd           | Website:  www.openfoam.com                      |
|    \\/     M anipulation  |                                                 |
\*---------------------------------------------------------------------------*/
FoamFile
{
    version     2.0;
    format      ascii;
    arch        "LSB;label=32;scalar=64";
    class       volScalarField;
    location    "0";
    object      Cy;
}
// * * * * * * * * * * * * * * * * * * * * * * * * * * * * * * * * * * * * * //

dimensions      [0 1 0 0 0 0 0];

internalField   nonuniform List<scalar> 
18000
(
0.00228817
0.00228786
0.00228734
0.00228653
0.00228543
0.00228411
0.00228254
0.00228068
0.00227862
0.00227631
0.00227375
0.00227098
0.00226799
0.00226476
0.00226135
0.00225773
0.00225387
0.00224987
0.00224566
0.00224124
0.00223669
0.00223194
0.00222702
0.00222197
0.00221673
0.00221138
0.00220587
0.00220021
0.00219445
0.00218854
0.00218253
0.0021764
0.00217015
0.00216382
0.00215739
0.00215087
0.00214426
0.00213756
0.00213081
0.00212397
0.00211709
0.00211014
0.00210313
0.00209608
0.00208898
0.00208185
0.00207468
0.00206749
0.00206027
0.00205303
0.00204578
0.00203851
0.00203124
0.00202396
0.00201669
0.00200943
0.00200217
0.00199493
0.0019877
0.00198049
0.00197331
0.00196616
0.00195904
0.00195195
0.0019449
0.00193788
0.00193092
0.00192399
0.00191712
0.0019103
0.00190353
0.00189682
0.00189017
0.00188358
0.00187705
0.00187059
0.0018642
0.00185788
0.00185163
0.00184545
0.00183935
0.00183332
0.00182738
0.00182151
0.00181573
0.00181002
0.00180441
0.00179887
0.00179343
0.00178806
0.00178279
0.00177761
0.00177252
0.00176752
0.00176261
0.0017578
0.00175307
0.00174845
0.0017439
0.00173946
0.00173511
0.00173086
0.00172671
0.00172265
0.00171869
0.00171481
0.00171104
0.00170736
0.00170378
0.0017003
0.00169691
0.00169362
0.00169041
0.0016873
0.0016843
0.00168138
0.00167858
0.00167583
0.00167321
0.00167067
0.00166822
0.00166588
0.00166359
0.00166143
0.00165935
0.00165735
0.00165546
0.00165363
0.0016519
0.00165028
0.00164871
0.00164725
0.00164587
0.00164456
0.00164337
0.00164221
0.00164115
0.00164021
0.0016393
0.0016385
0.00163777
0.0016371
0.00163654
0.00163603
0.00163559
0.00163526
0.00163495
0.00163474
0.00163463
0.00163453
0.00671768
0.00671678
0.00671524
0.00671288
0.00670965
0.00670578
0.00670115
0.00669571
0.00668964
0.00668288
0.00667535
0.00666723
0.00665846
0.00664897
0.00663896
0.00662832
0.00661701
0.00660527
0.0065929
0.00657993
0.00656656
0.00655261
0.00653819
0.00652334
0.00650798
0.00649227
0.0064761
0.00645948
0.00644255
0.00642522
0.00640757
0.00638958
0.00637124
0.00635266
0.00633375
0.00631463
0.00629523
0.00627557
0.00625573
0.00623567
0.00621545
0.00619504
0.00617448
0.00615378
0.00613293
0.006112
0.00609095
0.00606984
0.00604864
0.0060274
0.00600611
0.00598477
0.00596342
0.00594206
0.00592072
0.00589938
0.00587808
0.00585681
0.0058356
0.00581444
0.00579336
0.00577236
0.00575145
0.00573064
0.00570993
0.00568935
0.00566889
0.00564857
0.00562839
0.00560836
0.00558849
0.00556879
0.00554926
0.00552992
0.00551075
0.00549179
0.00547302
0.00545446
0.00543611
0.00541797
0.00540006
0.00538237
0.00536492
0.00534769
0.00533071
0.00531396
0.00529747
0.00528122
0.00526523
0.00524948
0.00523401
0.00521879
0.00520384
0.00518917
0.00517476
0.00516063
0.00514675
0.00513317
0.00511983
0.0051068
0.00509402
0.00508153
0.00506936
0.00505743
0.00504581
0.00503442
0.00502335
0.00501253
0.00500202
0.00499182
0.00498185
0.0049722
0.00496276
0.00495366
0.00494485
0.00493628
0.00492803
0.00491998
0.00491226
0.00490482
0.00489762
0.00489075
0.00488405
0.00487768
0.0048716
0.00486572
0.00486017
0.00485478
0.00484971
0.00484496
0.00484035
0.00483607
0.004832
0.00482817
0.00482465
0.00482125
0.00481816
0.00481539
0.00481272
0.00481036
0.00480823
0.00480626
0.00480461
0.00480311
0.00480182
0.00480084
0.00479995
0.00479932
0.00479899
0.0047987
0.010863
0.0108616
0.0108591
0.0108553
0.01085
0.0108438
0.0108363
0.0108275
0.0108177
0.0108067
0.0107946
0.0107814
0.0107673
0.0107519
0.0107357
0.0107185
0.0107002
0.0106812
0.0106612
0.0106403
0.0106186
0.0105961
0.0105728
0.0105488
0.0105239
0.0104985
0.0104724
0.0104455
0.0104181
0.0103901
0.0103616
0.0103325
0.0103028
0.0102728
0.0102422
0.0102113
0.0101799
0.0101481
0.010116
0.0100836
0.0100509
0.0100179
0.00998463
0.00995116
0.00991745
0.0098836
0.00984956
0.00981542
0.00978115
0.00974679
0.00971236
0.00967786
0.00964334
0.0096088
0.00957428
0.00953978
0.00950533
0.00947094
0.00943664
0.00940243
0.00936833
0.00933437
0.00930055
0.0092669
0.00923342
0.00920014
0.00916705
0.00913419
0.00910156
0.00906917
0.00903704
0.00900519
0.0089736
0.00894232
0.00891133
0.00888067
0.00885032
0.0088203
0.00879063
0.0087613
0.00873233
0.00870373
0.0086755
0.00864764
0.00862019
0.00859311
0.00856644
0.00854016
0.00851431
0.00848884
0.00846382
0.00843919
0.00841502
0.00839131
0.008368
0.00834516
0.00832271
0.00830075
0.00827918
0.0082581
0.00823743
0.00821725
0.00819756
0.00817826
0.00815948
0.00814106
0.00812316
0.00810567
0.00808866
0.00807217
0.00805604
0.00804044
0.00802518
0.00801046
0.00799622
0.00798235
0.00796902
0.007956
0.00794352
0.00793149
0.00791984
0.00790873
0.00789789
0.00788759
0.00787776
0.00786825
0.00785928
0.00785056
0.00784236
0.00783468
0.00782723
0.0078203
0.00781373
0.00780753
0.00780184
0.00779634
0.00779135
0.00778687
0.00778254
0.00777873
0.00777529
0.00777211
0.00776943
0.007767
0.00776492
0.00776334
0.0077619
0.00776088
0.00776035
0.00775987
0.0147424
0.0147404
0.0147371
0.0147319
0.0147248
0.0147163
0.0147061
0.0146942
0.0146809
0.014666
0.0146495
0.0146317
0.0146125
0.0145916
0.0145697
0.0145463
0.0145215
0.0144957
0.0144686
0.0144401
0.0144108
0.0143802
0.0143485
0.0143159
0.0142822
0.0142477
0.0142123
0.0141758
0.0141386
0.0141006
0.0140619
0.0140224
0.0139821
0.0139414
0.0138999
0.0138579
0.0138153
0.0137722
0.0137287
0.0136846
0.0136403
0.0135955
0.0135503
0.0135049
0.0134592
0.0134132
0.013367
0.0133207
0.0132742
0.0132276
0.0131808
0.013134
0.0130872
0.0130403
0.0129934
0.0129466
0.0128999
0.0128532
0.0128066
0.0127602
0.012714
0.0126679
0.012622
0.0125763
0.0125309
0.0124857
0.0124408
0.0123962
0.0123519
0.012308
0.0122644
0.0122211
0.0121783
0.0121358
0.0120938
0.0120521
0.0120109
0.0119702
0.0119299
0.0118901
0.0118508
0.011812
0.0117737
0.0117359
0.0116986
0.0116619
0.0116257
0.01159
0.0115549
0.0115204
0.0114864
0.011453
0.0114202
0.011388
0.0113564
0.0113254
0.0112949
0.0112651
0.0112358
0.0112072
0.0111792
0.0111518
0.0111251
0.0110989
0.0110734
0.0110484
0.0110241
0.0110004
0.0109773
0.0109549
0.010933
0.0109118
0.0108911
0.0108711
0.0108518
0.010833
0.0108149
0.0107972
0.0107803
0.010764
0.0107482
0.0107331
0.0107184
0.0107044
0.0106911
0.0106782
0.010666
0.0106541
0.010643
0.0106326
0.0106225
0.0106131
0.0106042
0.0105957
0.010588
0.0105806
0.0105738
0.0105677
0.0105618
0.0105567
0.010552
0.0105477
0.010544
0.0105407
0.0105379
0.0105358
0.0105338
0.0105324
0.0105317
0.0105311
0.0183729
0.0183705
0.0183662
0.0183598
0.018351
0.0183404
0.0183277
0.0183128
0.0182962
0.0182778
0.0182571
0.0182349
0.018211
0.018185
0.0181576
0.0181285
0.0180976
0.0180655
0.0180317
0.0179962
0.0179596
0.0179215
0.017882
0.0178414
0.0177994
0.0177564
0.0177122
0.0176667
0.0176205
0.0175731
0.0175248
0.0174756
0.0174254
0.0173746
0.0173229
0.0172706
0.0172175
0.0171638
0.0171095
0.0170546
0.0169994
0.0169435
0.0168873
0.0168307
0.0167737
0.0167164
0.0166589
0.0166011
0.0165431
0.016485
0.0164268
0.0163684
0.0163101
0.0162516
0.0161933
0.0161349
0.0160766
0.0160185
0.0159605
0.0159026
0.0158449
0.0157875
0.0157303
0.0156734
0.0156168
0.0155605
0.0155045
0.0154489
0.0153937
0.015339
0.0152846
0.0152307
0.0151773
0.0151244
0.015072
0.0150201
0.0149688
0.014918
0.0148678
0.0148182
0.0147692
0.0147209
0.0146731
0.014626
0.0145796
0.0145338
0.0144887
0.0144442
0.0144005
0.0143574
0.0143151
0.0142735
0.0142326
0.0141925
0.014153
0.0141144
0.0140764
0.0140393
0.0140028
0.0139672
0.0139322
0.0138981
0.0138648
0.0138321
0.0138004
0.0137692
0.0137389
0.0137093
0.0136806
0.0136527
0.0136254
0.013599
0.0135732
0.0135483
0.0135242
0.0135008
0.0134782
0.0134562
0.0134351
0.0134148
0.013395
0.0133762
0.0133579
0.0133405
0.0133239
0.0133078
0.0132926
0.0132779
0.013264
0.013251
0.0132384
0.0132267
0.0132156
0.0132051
0.0131955
0.0131862
0.0131777
0.0131701
0.0131628
0.0131564
0.0131506
0.0131452
0.0131406
0.0131365
0.013133
0.0131303
0.0131279
0.0131262
0.0131253
0.0131245
0.0217705
0.0217676
0.0217626
0.021755
0.0217445
0.0217319
0.021717
0.0216993
0.0216797
0.0216577
0.0216333
0.021607
0.0215786
0.0215478
0.0215154
0.0214809
0.0214443
0.0214062
0.0213662
0.0213241
0.0212808
0.0212356
0.0211889
0.0211407
0.0210909
0.02104
0.0209876
0.0209338
0.0208789
0.0208227
0.0207656
0.0207073
0.0206478
0.0205876
0.0205263
0.0204643
0.0204015
0.0203378
0.0202735
0.0202085
0.0201429
0.0200768
0.0200102
0.0199431
0.0198755
0.0198077
0.0197395
0.0196711
0.0196024
0.0195335
0.0194645
0.0193954
0.0193262
0.019257
0.0191878
0.0191186
0.0190496
0.0189807
0.0189119
0.0188434
0.018775
0.018707
0.0186392
0.0185718
0.0185047
0.018438
0.0183717
0.0183058
0.0182404
0.0181755
0.0181111
0.0180473
0.017984
0.0179213
0.0178592
0.0177977
0.0177369
0.0176767
0.0176173
0.0175585
0.0175004
0.0174431
0.0173865
0.0173307
0.0172757
0.0172214
0.017168
0.0171153
0.0170635
0.0170124
0.0169623
0.016913
0.0168645
0.016817
0.0167703
0.0167245
0.0166795
0.0166355
0.0165923
0.01655
0.0165086
0.0164681
0.0164287
0.01639
0.0163524
0.0163155
0.0162796
0.0162445
0.0162104
0.0161774
0.0161451
0.0161138
0.0160832
0.0160537
0.0160252
0.0159974
0.0159707
0.0159446
0.0159196
0.0158955
0.0158721
0.0158498
0.0158281
0.0158075
0.0157878
0.0157687
0.0157507
0.0157333
0.0157168
0.0157015
0.0156865
0.0156726
0.0156595
0.015647
0.0156356
0.0156246
0.0156146
0.0156056
0.015597
0.0155893
0.0155824
0.015576
0.0155707
0.0155658
0.0155616
0.0155585
0.0155556
0.0155535
0.0155525
0.0155515
0.0249501
0.0249468
0.0249411
0.0249323
0.0249203
0.0249059
0.0248888
0.0248686
0.024846
0.0248209
0.0247929
0.0247628
0.0247302
0.0246949
0.0246578
0.0246182
0.0245762
0.0245327
0.0244867
0.0244385
0.0243889
0.0243371
0.0242835
0.0242284
0.0241713
0.024113
0.0240529
0.0239912
0.0239283
0.0238639
0.0237984
0.0237316
0.0236635
0.0235944
0.0235242
0.0234532
0.0233812
0.0233081
0.0232345
0.0231599
0.0230849
0.0230091
0.0229327
0.0228558
0.0227784
0.0227006
0.0226225
0.022544
0.0224653
0.0223864
0.0223073
0.0222281
0.0221488
0.0220695
0.0219902
0.021911
0.0218318
0.0217528
0.0216741
0.0215955
0.0215172
0.0214392
0.0213615
0.0212842
0.0212073
0.0211309
0.0210549
0.0209794
0.0209044
0.0208301
0.0207563
0.0206831
0.0206106
0.0205387
0.0204675
0.0203971
0.0203274
0.0202585
0.0201903
0.0201229
0.0200564
0.0199907
0.0199259
0.0198619
0.0197988
0.0197366
0.0196754
0.019615
0.0195556
0.0194971
0.0194397
0.0193831
0.0193276
0.0192732
0.0192196
0.0191671
0.0191156
0.0190652
0.0190156
0.0189672
0.0189197
0.0188734
0.0188281
0.0187838
0.0187407
0.0186984
0.0186573
0.0186171
0.018578
0.0185401
0.0185031
0.0184673
0.0184322
0.0183984
0.0183657
0.0183338
0.0183032
0.0182733
0.0182446
0.018217
0.0181903
0.0181647
0.0181398
0.0181162
0.0180936
0.0180718
0.0180512
0.0180311
0.0180123
0.0179947
0.0179776
0.0179616
0.0179465
0.0179323
0.0179192
0.0179066
0.0178951
0.0178848
0.0178749
0.0178662
0.0178583
0.0178509
0.0178448
0.0178392
0.0178344
0.0178308
0.0178275
0.0178252
0.0178239
0.0178229
0.0279258
0.027922
0.0279156
0.0279058
0.0278924
0.0278763
0.0278571
0.0278345
0.0278092
0.0277811
0.0277498
0.0277161
0.0276796
0.0276401
0.0275985
0.0275543
0.0275073
0.0274585
0.0274071
0.0273531
0.0272976
0.0272396
0.0271797
0.0271179
0.0270541
0.0269888
0.0269215
0.0268524
0.0267821
0.02671
0.0266367
0.0265619
0.0264856
0.0264084
0.0263298
0.0262503
0.0261697
0.0260879
0.0260055
0.0259221
0.025838
0.0257532
0.0256677
0.0255817
0.025495
0.025408
0.0253205
0.0252327
0.0251446
0.0250563
0.0249678
0.0248791
0.0247904
0.0247016
0.0246128
0.0245241
0.0244356
0.0243472
0.024259
0.024171
0.0240834
0.0239961
0.0239091
0.0238226
0.0237366
0.023651
0.0235659
0.0234815
0.0233976
0.0233143
0.0232317
0.0231498
0.0230686
0.0229882
0.0229086
0.0228297
0.0227517
0.0226745
0.0225983
0.0225229
0.0224484
0.0223749
0.0223023
0.0222307
0.0221601
0.0220905
0.0220219
0.0219544
0.0218879
0.0218224
0.0217581
0.0216948
0.0216327
0.0215717
0.0215118
0.0214531
0.0213954
0.0213389
0.0212835
0.0212293
0.0211762
0.0211243
0.0210737
0.021024
0.0209757
0.0209284
0.0208824
0.0208374
0.0207937
0.0207513
0.0207098
0.0206697
0.0206305
0.0205926
0.020556
0.0205204
0.0204861
0.0204527
0.0204206
0.0203896
0.0203597
0.0203311
0.0203033
0.0202768
0.0202515
0.0202271
0.020204
0.0201816
0.0201605
0.0201408
0.0201216
0.0201038
0.0200869
0.020071
0.0200563
0.0200422
0.0200294
0.0200179
0.0200067
0.0199969
0.0199881
0.0199799
0.019973
0.0199668
0.0199614
0.0199574
0.0199537
0.0199511
0.0199497
0.0199485
0.0307105
0.0307064
0.0306993
0.0306886
0.0306738
0.0306561
0.030635
0.0306101
0.0305823
0.0305514
0.030517
0.0304799
0.0304398
0.0303964
0.0303506
0.030302
0.0302503
0.0301966
0.0301401
0.0300808
0.0300197
0.0299559
0.02989
0.0298221
0.0297519
0.0296801
0.0296061
0.0295301
0.0294528
0.0293735
0.0292929
0.0292106
0.0291268
0.0290418
0.0289554
0.028868
0.0287793
0.0286894
0.0285987
0.028507
0.0284146
0.0283213
0.0282273
0.0281326
0.0280373
0.0279417
0.0278454
0.0277489
0.027652
0.0275549
0.0274575
0.02736
0.0272624
0.0271648
0.0270672
0.0269696
0.0268723
0.026775
0.0266781
0.0265813
0.026485
0.026389
0.0262933
0.0261982
0.0261036
0.0260095
0.0259159
0.025823
0.0257308
0.0256392
0.0255484
0.0254583
0.025369
0.0252806
0.025193
0.0251063
0.0250205
0.0249356
0.0248517
0.0247688
0.0246869
0.0246061
0.0245263
0.0244475
0.0243699
0.0242933
0.024218
0.0241436
0.0240706
0.0239986
0.0239278
0.0238582
0.0237899
0.0237228
0.0236569
0.0235924
0.0235289
0.0234668
0.0234058
0.0233462
0.0232878
0.0232307
0.0231751
0.0231205
0.0230674
0.0230153
0.0229648
0.0229153
0.0228672
0.0228206
0.022775
0.0227309
0.0226878
0.0226461
0.0226059
0.0225667
0.022529
0.0224922
0.0224569
0.0224229
0.0223899
0.0223585
0.0223279
0.0222988
0.022271
0.0222441
0.0222187
0.0221941
0.0221709
0.0221492
0.0221281
0.0221085
0.02209
0.0220724
0.0220563
0.0220408
0.0220267
0.022014
0.0220018
0.021991
0.0219813
0.0219723
0.0219647
0.0219578
0.021952
0.0219475
0.0219434
0.0219406
0.021939
0.0219377
0.0333166
0.0333121
0.0333045
0.0332928
0.0332768
0.0332575
0.0332346
0.0332076
0.0331775
0.033144
0.0331066
0.0330664
0.0330229
0.0329758
0.0329262
0.0328734
0.0328173
0.0327591
0.0326978
0.0326334
0.0325671
0.032498
0.0324264
0.0323528
0.0322766
0.0321987
0.0321185
0.032036
0.0319521
0.0318661
0.0317786
0.0316894
0.0315984
0.0315063
0.0314125
0.0313177
0.0312215
0.031124
0.0310256
0.0309261
0.0308258
0.0307246
0.0306226
0.03052
0.0304166
0.0303128
0.0302084
0.0301037
0.0299985
0.0298932
0.0297876
0.0296818
0.0295759
0.02947
0.0293641
0.0292583
0.0291526
0.0290472
0.0289419
0.028837
0.0287325
0.0286283
0.0285246
0.0284214
0.0283187
0.0282166
0.0281151
0.0280144
0.0279143
0.0278149
0.0277164
0.0276187
0.0275218
0.0274259
0.0273309
0.0272368
0.0271437
0.0270517
0.0269606
0.0268707
0.0267819
0.0266941
0.0266076
0.0265221
0.0264379
0.0263549
0.0262731
0.0261925
0.0261132
0.0260351
0.0259583
0.0258828
0.0258087
0.025736
0.0256644
0.0255944
0.0255256
0.0254582
0.025392
0.0253274
0.025264
0.0252021
0.0251417
0.0250825
0.0250249
0.0249684
0.0249135
0.0248599
0.0248077
0.0247572
0.0247077
0.0246598
0.024613
0.0245679
0.0245242
0.0244817
0.0244408
0.0244008
0.0243626
0.0243257
0.0242899
0.0242559
0.0242226
0.024191
0.0241609
0.0241317
0.0241042
0.0240775
0.0240523
0.0240288
0.0240059
0.0239847
0.0239645
0.0239455
0.023928
0.0239112
0.0238958
0.0238821
0.0238688
0.0238571
0.0238466
0.0238368
0.0238286
0.0238212
0.0238148
0.0238099
0.0238055
0.0238024
0.0238008
0.0237993
0.0357555
0.0357507
0.0357425
0.0357299
0.0357127
0.0356921
0.0356675
0.0356385
0.0356062
0.0355703
0.0355302
0.035487
0.0354403
0.0353898
0.0353365
0.0352798
0.0352197
0.0351572
0.0350913
0.0350223
0.0349511
0.0348769
0.0348002
0.0347211
0.0346394
0.0345558
0.0344697
0.0343812
0.0342911
0.0341989
0.0341049
0.0340092
0.0339115
0.0338126
0.033712
0.0336102
0.033507
0.0334023
0.0332968
0.03319
0.0330824
0.0329737
0.0328643
0.0327541
0.0326432
0.0325318
0.0324197
0.0323074
0.0321945
0.0320815
0.0319681
0.0318546
0.031741
0.0316273
0.0315136
0.0314001
0.0312867
0.0311735
0.0310606
0.030948
0.0308358
0.030724
0.0306127
0.0305019
0.0303917
0.0302822
0.0301733
0.0300651
0.0299577
0.0298511
0.0297453
0.0296405
0.0295365
0.0294336
0.0293316
0.0292306
0.0291307
0.0290319
0.0289343
0.0288377
0.0287424
0.0286482
0.0285553
0.0284636
0.0283733
0.0282841
0.0281964
0.0281098
0.0280247
0.0279409
0.0278586
0.0277775
0.027698
0.0276199
0.0275432
0.027468
0.0273941
0.0273218
0.0272508
0.0271814
0.0271134
0.027047
0.0269822
0.0269187
0.0268568
0.0267962
0.0267373
0.0266797
0.0266237
0.0265695
0.0265164
0.026465
0.0264148
0.0263663
0.0263194
0.0262738
0.0262299
0.0261871
0.026146
0.0261064
0.026068
0.0260315
0.0259958
0.0259619
0.0259295
0.0258982
0.0258687
0.02584
0.025813
0.0257878
0.0257632
0.0257404
0.0257188
0.0256984
0.0256796
0.0256615
0.0256451
0.0256304
0.0256161
0.0256036
0.0255922
0.0255818
0.025573
0.025565
0.0255581
0.0255529
0.0255482
0.0255448
0.0255431
0.0255415
0.0380379
0.0380328
0.0380241
0.0380107
0.0379924
0.0379705
0.0379443
0.0379135
0.0378791
0.0378408
0.0377982
0.0377522
0.0377026
0.0376488
0.0375922
0.0375319
0.0374679
0.0374014
0.0373314
0.0372579
0.0371822
0.0371033
0.0370216
0.0369375
0.0368505
0.0367616
0.03667
0.0365759
0.0364801
0.0363819
0.036282
0.0361801
0.0360763
0.035971
0.035864
0.0357557
0.0356459
0.0355345
0.0354222
0.0353086
0.0351942
0.0350786
0.0349622
0.034845
0.0347269
0.0346084
0.0344892
0.0343697
0.0342496
0.0341294
0.0340088
0.033888
0.0337671
0.0336462
0.0335253
0.0334045
0.0332839
0.0331634
0.0330433
0.0329235
0.0328042
0.0326852
0.0325668
0.032449
0.0323317
0.0322152
0.0320993
0.0319843
0.03187
0.0317566
0.0316441
0.0315326
0.031422
0.0313124
0.0312039
0.0310965
0.0309903
0.0308852
0.0307812
0.0306786
0.0305771
0.030477
0.0303781
0.0302806
0.0301844
0.0300896
0.0299962
0.0299042
0.0298137
0.0297245
0.0296369
0.0295507
0.029466
0.029383
0.0293014
0.0292214
0.0291428
0.0290659
0.0289904
0.0289166
0.0288442
0.0287735
0.0287046
0.028637
0.0285712
0.0285067
0.028444
0.0283828
0.0283232
0.0282655
0.028209
0.0281544
0.0281009
0.0280494
0.0279995
0.027951
0.0279043
0.0278587
0.027815
0.0277729
0.0277321
0.0276932
0.0276552
0.0276191
0.0275847
0.0275514
0.02752
0.0274895
0.0274608
0.0274339
0.0274078
0.0273835
0.0273605
0.0273388
0.0273189
0.0272996
0.0272821
0.0272665
0.0272513
0.0272379
0.0272259
0.0272148
0.0272054
0.0271969
0.0271896
0.0271841
0.027179
0.0271755
0.0271736
0.0271719
0.0401739
0.0401685
0.0401593
0.0401452
0.0401258
0.0401027
0.040075
0.0400425
0.0400062
0.0399658
0.0399207
0.0398722
0.0398197
0.039763
0.0397031
0.0396395
0.0395718
0.0395016
0.0394277
0.0393501
0.0392701
0.0391868
0.0391005
0.0390117
0.0389198
0.0388259
0.0387292
0.0386298
0.0385286
0.0384249
0.0383194
0.0382118
0.0381021
0.037991
0.0378779
0.0377636
0.0376476
0.03753
0.0374113
0.0372914
0.0371705
0.0370484
0.0369254
0.0368017
0.036677
0.0365518
0.0364259
0.0362997
0.0361729
0.0360459
0.0359185
0.0357909
0.0356633
0.0355355
0.0354079
0.0352803
0.0351529
0.0350257
0.0348988
0.0347723
0.0346462
0.0345206
0.0343956
0.0342711
0.0341473
0.0340242
0.0339019
0.0337803
0.0336596
0.0335399
0.0334211
0.0333032
0.0331864
0.0330707
0.0329562
0.0328427
0.0327305
0.0326195
0.0325097
0.0324013
0.0322942
0.0321884
0.032084
0.031981
0.0318794
0.0317793
0.0316807
0.0315834
0.0314878
0.0313937
0.0313011
0.0312101
0.0311207
0.031033
0.0309468
0.0308623
0.0307793
0.0306981
0.0306183
0.0305403
0.0304639
0.0303892
0.0303164
0.0302451
0.0301756
0.0301075
0.0300413
0.0299766
0.0299137
0.0298527
0.0297931
0.0297354
0.0296789
0.0296245
0.0295718
0.0295205
0.0294712
0.0294231
0.0293769
0.0293324
0.0292893
0.0292482
0.0292082
0.0291701
0.0291337
0.0290986
0.0290654
0.0290331
0.0290028
0.0289744
0.0289469
0.0289212
0.0288969
0.028874
0.028853
0.0288326
0.0288141
0.0287976
0.0287816
0.0287675
0.0287548
0.028743
0.0287331
0.0287241
0.0287164
0.0287106
0.0287052
0.0287015
0.0286995
0.0286978
0.0421728
0.0421672
0.0421575
0.0421427
0.0421224
0.0420981
0.0420691
0.0420349
0.0419968
0.0419544
0.0419071
0.0418561
0.0418011
0.0417415
0.0416786
0.0416118
0.0415408
0.0414672
0.0413895
0.0413081
0.0412241
0.0411366
0.0410461
0.0409528
0.0408564
0.0407578
0.0406563
0.0405519
0.0404457
0.0403368
0.0402261
0.0401131
0.039998
0.0398813
0.0397627
0.0396426
0.0395208
0.0393974
0.0392728
0.0391469
0.03902
0.0388919
0.0387628
0.0386328
0.0385019
0.0383705
0.0382384
0.0381059
0.0379728
0.0378394
0.0377057
0.0375718
0.0374378
0.0373037
0.0371697
0.0370357
0.036902
0.0367685
0.0366353
0.0365025
0.0363702
0.0362383
0.036107
0.0359764
0.0358464
0.0357172
0.0355887
0.0354612
0.0353345
0.0352087
0.035084
0.0349603
0.0348377
0.0347163
0.034596
0.0344769
0.0343591
0.0342426
0.0341274
0.0340135
0.033901
0.03379
0.0336804
0.0335723
0.0334657
0.0333605
0.033257
0.033155
0.0330546
0.0329557
0.0328586
0.032763
0.0326692
0.0325771
0.0324866
0.0323979
0.0323108
0.0322255
0.0321418
0.03206
0.0319797
0.0319013
0.0318249
0.03175
0.0316771
0.0316056
0.0315361
0.0314682
0.0314021
0.0313381
0.0312755
0.0312149
0.0311557
0.0310985
0.0310432
0.0309894
0.0309377
0.0308871
0.0308386
0.0307919
0.0307467
0.0307036
0.0306615
0.0306215
0.0305833
0.0305464
0.0305116
0.0304777
0.0304459
0.0304161
0.0303872
0.0303603
0.0303348
0.0303107
0.0302886
0.0302672
0.0302479
0.0302305
0.0302137
0.0301989
0.0301855
0.0301732
0.0301628
0.0301533
0.0301453
0.0301391
0.0301335
0.0301296
0.0301275
0.0301257
0.0440436
0.0440376
0.0440275
0.0440121
0.0439909
0.0439655
0.0439352
0.0438995
0.0438597
0.0438154
0.043766
0.0437128
0.0436553
0.0435931
0.0435274
0.0434577
0.0433835
0.0433066
0.0432255
0.0431404
0.0430527
0.0429613
0.0428668
0.0427694
0.0426687
0.0425657
0.0424597
0.0423507
0.0422398
0.0421261
0.0420104
0.0418925
0.0417722
0.0416504
0.0415265
0.0414011
0.0412739
0.041145
0.0410149
0.0408834
0.0407508
0.040617
0.0404822
0.0403465
0.0402098
0.0400726
0.0399346
0.0397962
0.0396572
0.0395179
0.0393783
0.0392384
0.0390985
0.0389584
0.0388185
0.0386786
0.0385389
0.0383995
0.0382604
0.0381217
0.0379835
0.0378458
0.0377087
0.0375722
0.0374365
0.0373015
0.0371674
0.0370342
0.0369018
0.0367705
0.0366403
0.0365111
0.0363831
0.0362562
0.0361306
0.0360062
0.0358832
0.0357615
0.0356412
0.0355223
0.0354048
0.0352889
0.0351744
0.0350615
0.0349501
0.0348403
0.0347322
0.0346257
0.0345208
0.0344176
0.0343161
0.0342163
0.0341183
0.0340222
0.0339276
0.033835
0.033744
0.033655
0.0335675
0.0334821
0.0333983
0.0333164
0.0332366
0.0331584
0.0330822
0.0330075
0.032935
0.032864
0.0327951
0.0327282
0.0326628
0.0325996
0.0325377
0.032478
0.0324203
0.032364
0.03231
0.0322572
0.0322066
0.0321578
0.0321106
0.0320655
0.0320216
0.0319798
0.03194
0.0319014
0.031865
0.0318297
0.0317964
0.0317653
0.0317351
0.031707
0.0316804
0.0316552
0.0316322
0.0316098
0.0315896
0.0315714
0.0315539
0.0315384
0.0315245
0.0315116
0.0315007
0.0314909
0.0314825
0.031476
0.0314702
0.0314661
0.0314639
0.031462
0.0457943
0.0457881
0.0457776
0.0457615
0.0457395
0.0457131
0.0456816
0.0456445
0.0456031
0.045557
0.0455057
0.0454503
0.0453905
0.0453258
0.0452576
0.0451851
0.045108
0.045028
0.0449437
0.0448552
0.0447641
0.044669
0.0445707
0.0444695
0.0443648
0.0442577
0.0441474
0.0440341
0.0439188
0.0438006
0.0436803
0.0435577
0.0434326
0.0433059
0.0431771
0.0430467
0.0429145
0.0427804
0.0426452
0.0425084
0.0423706
0.0422315
0.0420913
0.0419502
0.0418081
0.0416654
0.041522
0.041378
0.0412335
0.0410887
0.0409436
0.0407981
0.0406526
0.040507
0.0403615
0.040216
0.0400708
0.0399258
0.0397812
0.039637
0.0394933
0.0393501
0.0392076
0.0390657
0.0389245
0.0387842
0.0386448
0.0385062
0.0383687
0.0382321
0.0380967
0.0379624
0.0378293
0.0376974
0.0375668
0.0374375
0.0373095
0.037183
0.0370579
0.0369343
0.0368122
0.0366916
0.0365726
0.0364551
0.0363394
0.0362252
0.0361128
0.036002
0.035893
0.0357857
0.0356802
0.0355764
0.0354745
0.0353745
0.0352762
0.03518
0.0350853
0.0349928
0.0349018
0.034813
0.0347258
0.0346407
0.0345577
0.0344764
0.0343972
0.0343195
0.0342441
0.0341703
0.0340986
0.0340292
0.0339611
0.0338954
0.033831
0.033769
0.0337089
0.0336505
0.0335943
0.0335394
0.0334868
0.0334361
0.033387
0.0333401
0.0332944
0.033251
0.0332096
0.0331695
0.0331316
0.0330949
0.0330603
0.033028
0.0329965
0.0329673
0.0329396
0.0329135
0.0328895
0.0328663
0.0328453
0.0328264
0.0328082
0.0327921
0.0327776
0.0327642
0.0327529
0.0327426
0.0327339
0.0327272
0.0327211
0.0327168
0.0327146
0.0327126
0.0474326
0.0474262
0.0474154
0.0473987
0.0473759
0.0473486
0.0473159
0.0472775
0.0472346
0.0471869
0.0471337
0.0470764
0.0470145
0.0469475
0.0468768
0.0468017
0.0467218
0.0466389
0.0465516
0.04646
0.0463656
0.0462671
0.0461653
0.0460605
0.045952
0.0458411
0.0457269
0.0456095
0.04549
0.0453676
0.0452431
0.045116
0.0449865
0.0448553
0.0447218
0.0445868
0.0444498
0.044311
0.0441709
0.0440293
0.0438865
0.0437424
0.0435972
0.0434511
0.0433039
0.0431561
0.0430075
0.0428584
0.0427087
0.0425588
0.0424084
0.0422577
0.042107
0.0419562
0.0418055
0.0416548
0.0415044
0.0413543
0.0412045
0.0410551
0.0409062
0.0407579
0.0406103
0.0404633
0.0403171
0.0401718
0.0400273
0.0398839
0.0397414
0.0396
0.0394597
0.0393206
0.0391827
0.0390461
0.0389108
0.0387769
0.0386443
0.0385133
0.0383837
0.0382557
0.0381292
0.0380043
0.037881
0.0377594
0.0376395
0.0375212
0.0374048
0.03729
0.0371772
0.037066
0.0369567
0.0368492
0.0367436
0.0366401
0.0365383
0.0364386
0.0363406
0.0362447
0.0361505
0.0360585
0.0359682
0.0358801
0.0357941
0.0357098
0.0356278
0.0355474
0.0354692
0.0353929
0.0353186
0.0352466
0.0351762
0.0351081
0.0350414
0.0349771
0.0349149
0.0348544
0.0347962
0.0347393
0.0346848
0.0346323
0.0345814
0.0345329
0.0344856
0.0344406
0.0343977
0.0343562
0.034317
0.0342789
0.0342431
0.0342096
0.0341771
0.0341468
0.0341181
0.034091
0.0340662
0.0340422
0.0340204
0.0340008
0.0339819
0.0339653
0.0339503
0.0339364
0.0339247
0.0339141
0.033905
0.0338981
0.0338918
0.0338874
0.033885
0.033883
0.0489659
0.0489593
0.0489481
0.0489309
0.0489073
0.0488791
0.0488454
0.0488058
0.0487615
0.0487122
0.0486573
0.0485982
0.0485342
0.0484651
0.0483921
0.0483145
0.0482321
0.0481465
0.0480564
0.0479618
0.0478644
0.0477627
0.0476576
0.0475494
0.0474374
0.0473229
0.047205
0.0470839
0.0469605
0.0468342
0.0467055
0.0465744
0.0464407
0.0463053
0.0461675
0.0460281
0.0458867
0.0457434
0.0455988
0.0454525
0.0453052
0.0451564
0.0450065
0.0448557
0.0447037
0.0445511
0.0443977
0.0442438
0.0440893
0.0439345
0.0437793
0.0436237
0.0434682
0.0433125
0.0431569
0.0430013
0.0428461
0.0426911
0.0425364
0.0423822
0.0422285
0.0420755
0.041923
0.0417713
0.0416204
0.0414704
0.0413212
0.0411731
0.041026
0.0408801
0.0407352
0.0405916
0.0404493
0.0403083
0.0401686
0.0400303
0.0398935
0.0397582
0.0396245
0.0394923
0.0393617
0.0392328
0.0391055
0.03898
0.0388562
0.0387341
0.0386139
0.0384955
0.0383789
0.0382641
0.0381513
0.0380404
0.0379314
0.0378245
0.0377194
0.0376165
0.0375153
0.0374163
0.0373191
0.0372241
0.0371309
0.0370399
0.0369512
0.0368642
0.0367795
0.0366965
0.0366158
0.0365369
0.0364603
0.036386
0.0363133
0.0362429
0.0361741
0.0361078
0.0360436
0.0359811
0.035921
0.0358623
0.035806
0.0357518
0.0356993
0.0356492
0.0356003
0.0355539
0.0355096
0.0354668
0.0354263
0.035387
0.03535
0.0353154
0.0352818
0.0352506
0.035221
0.035193
0.0351674
0.0351426
0.0351201
0.0350999
0.0350804
0.0350632
0.0350477
0.0350334
0.0350213
0.0350103
0.035001
0.0349938
0.0349874
0.0349828
0.0349804
0.0349782
0.0504008
0.050394
0.0503825
0.0503648
0.0503405
0.0503115
0.0502768
0.050236
0.0501904
0.0501397
0.0500832
0.0500223
0.0499565
0.0498853
0.0498102
0.0497303
0.0496455
0.0495574
0.0494646
0.0493673
0.049267
0.0491624
0.0490542
0.0489428
0.0488275
0.0487097
0.0485883
0.0484636
0.0483367
0.0482066
0.0480742
0.0479393
0.0478016
0.0476622
0.0475204
0.0473769
0.0472314
0.0470838
0.046935
0.0467845
0.0466328
0.0464797
0.0463254
0.0461701
0.0460137
0.0458567
0.0456988
0.0455403
0.0453813
0.0452219
0.0450622
0.0449021
0.0447419
0.0445817
0.0444215
0.0442615
0.0441016
0.0439421
0.0437829
0.0436242
0.043466
0.0433084
0.0431515
0.0429954
0.0428401
0.0426856
0.0425321
0.0423797
0.0422283
0.042078
0.0419289
0.0417811
0.0416346
0.0414894
0.0413457
0.0412034
0.0410626
0.0409233
0.0407856
0.0406496
0.0405152
0.0403824
0.0402515
0.0401222
0.0399949
0.0398692
0.0397455
0.0396235
0.0395036
0.0393854
0.0392693
0.0391551
0.0390429
0.0389329
0.0388248
0.0387188
0.0386146
0.0385128
0.0384127
0.0383149
0.038219
0.0381253
0.038034
0.0379444
0.0378573
0.0377718
0.0376888
0.0376076
0.0375287
0.0374522
0.0373774
0.037305
0.0372342
0.0371659
0.0370998
0.0370355
0.0369736
0.0369132
0.0368553
0.0367995
0.0367454
0.0366939
0.0366436
0.0365958
0.0365502
0.0365061
0.0364644
0.036424
0.0363859
0.0363503
0.0363157
0.0362836
0.0362531
0.0362243
0.0361979
0.0361724
0.0361492
0.0361285
0.0361084
0.0360907
0.0360747
0.03606
0.0360476
0.0360363
0.0360267
0.0360193
0.0360126
0.0360079
0.0360054
0.0360032
0.0517437
0.0517367
0.0517248
0.0517066
0.0516818
0.0516519
0.0516163
0.0515744
0.0515277
0.0514756
0.0514176
0.051355
0.0512875
0.0512144
0.0511373
0.0510553
0.0509682
0.0508778
0.0507826
0.0506826
0.0505796
0.0504722
0.0503611
0.0502468
0.0501284
0.0500075
0.0498829
0.0497548
0.0496245
0.049491
0.0493551
0.0492165
0.0490752
0.0489321
0.0487865
0.0486392
0.0484898
0.0483383
0.0481855
0.048031
0.0478753
0.0477181
0.0475597
0.0474002
0.0472397
0.0470784
0.0469163
0.0467537
0.0465904
0.0464268
0.0462628