/*--------------------------------*- C++ -*----------------------------------*\
| =========                 |                                                 |
| \\      /  F ield         | OpenFOAM: The Open Source CFD Toolbox           |
|  \\    /   O peration     | Version:  v2012                                 |
|   \\  /    A nd           | Website:  www.openfoam.com                      |
|    \\/     M anipulation  |                                                 |
\*---------------------------------------------------------------------------*/
FoamFile
{
    version     2.0;
    format      ascii;
    class       volVectorField;
    location    "0";
    object      U;
}
// * * * * * * * * * * * * * * * * * * * * * * * * * * * * * * * * * * * * * //

dimensions      [0 1 -1 0 0 0 0];


internalField   nonuniform List<vector>
8988
(
(190.60357734428487 0 0)
(190.60357734428487 0 0)
(190.60357734428487 0 0)
(190.60357734428487 0 0)
(190.60357734428487 0 0)
(190.60357734428487 0 0)
(190.60357734428487 0 0)
(190.60357734428487 0 0)
(190.60357734428487 0 0)
(190.60357734428487 0 0)
(190.60357734428487 0 0)
(190.60357734428487 0 0)
(190.60357734428487 0 0)
(190.60357734428487 0 0)
(190.60357734428487 0 0)
(190.60357734428487 0 0)
(190.60357734428487 0 0)
(190.60357734428487 0 0)
(190.60357734428487 0 0)
(190.60357734428487 0 0)
(190.60357734428487 0 0)
(190.60357734428487 0 0)
(190.60357734428487 0 0)
(190.60357734428487 0 0)
(190.60357734428487 0 0)
(190.60357734428487 0 0)
(190.60357734428487 0 0)
(190.60357734428487 0 0)
(190.60357734428487 0 0)
(190.60357734428487 0 0)
(190.60357734428487 0 0)
(190.60357734428487 0 0)
(190.60357734428487 0 0)
(190.60357734428487 0 0)
(190.60357734428487 0 0)
(190.60357734428487 0 0)
(190.60357734428487 0 0)
(190.60357734428487 0 0)
(190.60357734428487 0 0)
(190.60357734428487 0 0)
(190.60357734428487 0 0)
(190.60357734428487 0 0)
(190.6539001301301 0 0)
(190.65389957376922 0 0)
(190.65389957376922 0 0)
(190.65389957376922 0 0)
(190.65389901740835 0 0)
(190.65389901740835 0 0)
(190.65389901740835 0 0)
(190.65389846104745 0 0)
(190.65389846104745 0 0)
(190.65389790468657 0 0)
(190.65389790468657 0 0)
(190.6538973483257 0 0)
(190.6538973483257 0 0)
(190.65389679196483 0 0)
(190.65389679196483 0 0)
(190.65389623560395 0 0)
(190.65389567924308 0 0)
(190.65389512288218 0 0)
(190.6538945665213 0 0)
(190.6538945665213 0 0)
(190.65389401016043 0 0)
(190.65389345379955 0 0)
(190.6538923410778 0 0)
(190.6538917847169 0 0)
(190.65389122835603 0 0)
(190.65389067199516 0 0)
(190.6538895592734 0 0)
(190.65388900291254 0 0)
(190.65388789019076 0 0)
(190.653886777469 0 0)
(190.65388566474726 0 0)
(190.6538845520255 0 0)
(190.65388343930374 0 0)
(190.65388232658196 0 0)
(190.65388065749934 0 0)
(190.6538795447776 0 0)
(190.65387787569495 0 0)
(190.65387620661232 0 0)
(190.65387453752967 0 0)
(190.65387231208615 0 0)
(190.65387064300353 0 0)
(190.65386841756 0 0)
(190.7539355507664 0 0)
(190.7539355507664 0 0)
(190.7539355507664 0 0)
(190.75393443921234 0 0)
(190.75393332765827 0 0)
(190.75393332765827 0 0)
(190.75393221610418 0 0)
(190.75393221610418 0 0)
(190.7539311045501 0 0)
(190.75392999299604 0 0)
(190.75392888144196 0 0)
(190.7539277698879 0 0)
(190.7539277698879 0 0)
(190.7539266583338 0 0)
(190.75392443522566 0 0)
(190.7539233236716 0 0)
(190.7539222121175 0 0)
(190.75392110056342 0 0)
(190.75391887745528 0 0)
(190.7539177659012 0 0)
(190.75391554279304 0 0)
(190.75391443123897 0 0)
(190.75391220813083 0 0)
(190.75390998502266 0 0)
(190.75390776191452 0 0)
(190.75390442725228 0 0)
(190.75390220414414 0 0)
(190.75389998103597 0 0)
(190.75389664637376 0 0)
(190.75389331171152 0 0)
(190.75388997704928 0 0)
(190.75388553083297 0 0)
(190.75388219617076 0 0)
(190.75387774995446 0 0)
(190.75387330373815 0 0)
(190.75386885752184 0 0)
(190.75386329975146 0 0)
(190.75385774198108 0 0)
(190.75385107265663 0 0)
(190.75384551488625 0 0)
(190.7538388455618 0 0)
(190.75383106468325 0 0)
(190.90316347092096 0 0)
(190.90316180444503 0 0)
(190.90316180444503 0 0)
(190.9031601379691 0 0)
(190.90315847149316 0 0)
(190.90315680501723 0 0)
(190.9031551385413 0 0)
(190.90315347206538 0 0)
(190.90315347206538 0 0)
(190.9031501391135 0 0)
(190.90314847263758 0 0)
(190.90314680616166 0 0)
(190.90314513968573 0 0)
(190.90314180673386 0 0)
(190.90314014025793 0 0)
(190.90313680730608 0 0)
(190.90313514083013 0 0)
(190.90313180787828 0 0)
(190.9031284749264 0 0)
(190.90312514197456 0 0)
(190.9031218090227 0 0)
(190.9031168095949 0 0)
(190.90311347664303 0 0)
(190.90310847721526 0 0)
(190.90310347778745 0 0)
(190.90309847835965 0 0)
(190.90309347893188 0 0)
(190.90308681302815 0 0)
(190.90308014712443 0 0)
(190.9030734812207 0 0)
(190.90306681531698 0 0)
(190.90305848293733 0 0)
(190.90305015055768 0 0)
(190.90304181817802 0 0)
(190.90303181932245 0 0)
(190.90302182046685 0 0)
(190.90301182161127 0 0)
(190.90300015627977 0 0)
(190.90298682447232 0 0)
(190.90297349266487 0 0)
(190.90296016085742 0 0)
(190.90294516257404 0 0)
(191.10079645074276 0 0)
(191.10079423258995 0 0)
(191.10079201443713 0 0)
(191.10078979628432 0 0)
(191.1007875781315 0 0)
(191.10078535997866 0 0)
(191.10078314182584 0 0)
(191.10078092367303 0 0)
(191.1007787055202 0 0)
(191.10077426921458 0 0)
(191.10077205106177 0 0)
(191.10076761475614 0 0)
(191.1007653966033 0 0)
(191.10076096029766 0 0)
(191.10075652399203 0 0)
(191.1007520876864 0 0)
(191.10074765138074 0 0)
(191.1007432150751 0 0)
(191.10073656061667 0 0)
(191.10072990615822 0 0)
(191.10072546985256 0 0)
(191.10071881539412 0 0)
(191.10070994278283 0 0)
(191.10070328832438 0 0)
(191.10069441571312 0 0)
(191.10068554310183 0 0)
(191.10067667049057 0 0)
(191.10066779787928 0 0)
(191.1006567071152 0 0)
(191.1006456163511 0 0)
(191.10063230743418 0 0)
(191.1006189985173 0 0)
(191.10060568960037 0 0)
(191.10059016253064 0 0)
(191.1005746354609 0 0)
(191.10055689023838 0 0)
(191.10053914501583 0 0)
(191.10051918164046 0 0)
(191.10049700011226 0 0)
(191.10047481858408 0 0)
(191.1004526370559 0 0)
(191.10042601922208 0 0)
(191.3461265515299 0 0)
(191.34612378416008 0 0)
(191.34612101679028 0 0)
(191.34611824942047 0 0)
(191.34611548205066 0 0)
(191.34611271468086 0 0)
(191.34610717994124 0 0)
(191.34610441257144 0 0)
(191.34610164520163 0 0)
(191.346096110462 0 0)
(191.3460905757224 0 0)
(191.34608504098279 0 0)
(191.34607950624317 0 0)
(191.34607397150356 0 0)
(191.34606843676394 0 0)
(191.34606013465452 0 0)
(191.3460545999149 0 0)
(191.3460462978055 0 0)
(191.34603799569607 0 0)
(191.34602969358664 0 0)
(191.34602139147722 0 0)
(191.346010321998 0 0)
(191.34599925251877 0 0)
(191.34598818303954 0 0)
(191.3459743461905 0 0)
(191.34596327671127 0 0)
(191.34594667249243 0 0)
(191.34593283564337 0 0)
(191.34591623142452 0 0)
(191.34589962720568 0 0)
(191.34588025561703 0 0)
(191.34586088402838 0 0)
(191.34583874506993 0 0)
(191.34581660611147 0 0)
(191.345794467153 0 0)
(191.34576679345494 0 0)
(191.34573911975687 0 0)
(191.3457114460588 0 0)
(191.34567823762112 0 0)
(191.34564502918343 0 0)
(191.34560905337594 0 0)
(191.3455703101986 0 0)
(191.63852082826486 0 0)
(191.6385175134001 0 0)
(191.63851419853532 0 0)
(191.63851088367056 0 0)
(191.63850756880578 0 0)
(191.63850093907624 0 0)
(191.63849762421148 0 0)
(191.63849099448194 0 0)
(191.6384843647524 0 0)
(191.63847773502286 0 0)
(191.63847110529332 0 0)
(191.63846447556378 0 0)
(191.63845784583424 0 0)
(191.6384479012399 0 0)
(191.6384412715104 0 0)
(191.63843132691608 0 0)
(191.63842138232178 0 0)
(191.6384081228627 0 0)
(191.63839817826837 0 0)
(191.6383849188093 0 0)
(191.6383716593502 0 0)
(191.63835839989116 0 0)
(191.6383418255673 0 0)
(191.6383285661082 0 0)
(191.6383086769196 0 0)
(191.63829210259576 0 0)
(191.63827221340713 0 0)
(191.63824900935376 0 0)
(191.63822912016514 0 0)
(191.63820260124697 0 0)
(191.6381793971936 0 0)
(191.63814956341065 0 0)
(191.63811972962773 0 0)
(191.63808989584481 0 0)
(191.6380567471971 0 0)
(191.63802028368465 0 0)
(191.6379805053074 0 0)
(191.63794072693017 0 0)
(191.63789431882338 0 0)
(191.63784791071663 0 0)
(191.6377981877451 0 0)
(191.63774514990877 0 0)
(191.97777512199733 0 0)
(191.97777125651228 0 0)
(191.97776739102727 0 0)
(191.9777596600572 0 0)
(191.97775579457218 0 0)
(191.97774806360212 0 0)
(191.97774033263204 0 0)
(191.97773260166198 0 0)
(191.97772487069193 0 0)
(191.97771713972188 0 0)
(191.9777094087518 0 0)
(191.9776978122967 0 0)
(191.97769008132664 0 0)
(191.97767848487155 0 0)
(191.97766688841645 0 0)
(191.97765529196138 0 0)
(191.97763983002125 0 0)
(191.97762823356615 0 0)
(191.97761277162604 0 0)
(191.97759344420086 0 0)
(191.97757798226075 0 0)
(191.9775586548356 0 0)
(191.97753932741045 0 0)
(191.97751613450026 0 0)
(191.97749294159007 0 0)
(191.97746974867988 0 0)
(191.97744269028468 0 0)
(191.97741563188944 0 0)
(191.9773847080092 0 0)
(191.97735378412895 0 0)
(191.9773189947637 0 0)
(191.9772842053984 0 0)
(191.9772455505481 0 0)
(191.97720303021276 0 0)
(191.97715664439238 0 0)
(191.97711025857203 0 0)
(191.97706000726663 0 0)
(191.9770058904762 0 0)
(191.9769440427157 0 0)
(191.9768821949552 0 0)
(191.97681648170968 0 0)
(191.9767430374941 0 0)
(192.36268064912466 0 0)
(192.36267183365308 0 0)
(192.36266742591732 0 0)
(192.36265861044575 0 0)
(192.36265420270996 0 0)
(192.36264538723842 0 0)
(192.36263657176684 0 0)
(192.36262775629527 0 0)
(192.36261453308794 0 0)
(192.36260571761636 0 0)
(192.36259249440903 0 0)
(192.36258367893745 0 0)
(192.36257045573012 0 0)
(192.36255723252276 0 0)
(192.36253960157964 0 0)
(192.3625263783723 0 0)
(192.36250874742916 0 0)
(192.36249111648604 0 0)
(192.36246907780713 0 0)
(192.36245144686401 0 0)
(192.3624294081851 0 0)
(192.3624029617704 0 0)
(192.36237651535572 0 0)
(192.36235006894103 0 0)
(192.36232362252633 0 0)
(192.36229276837588 0 0)
(192.3622575064896 0 0)
(192.36222224460337 0 0)
(192.3621869827171 0 0)
(192.3621429053593 0 0)
(192.36209882800148 0 0)
(192.36205475064367 0 0)
(192.36200626555006 0 0)
(192.3619533727207 0 0)
(192.36189607215553 0 0)
(192.3618343638546 0 0)
(192.36176824781788 0 0)
(192.36169772404537 0 0)
(192.36162720027286 0 0)
(192.36154786102878 0 0)
(192.36145970631316 0 0)
(192.36137155159753 0 0)
(192.79280142971157 0 0)
(192.7927964793078 0 0)
(192.7927865785003 0 0)
(192.7927766776928 0 0)
(192.7927667768853 0 0)
(192.7927568760778 0 0)
(192.7927469752703 0 0)
(192.79273707446276 0 0)
(192.7927222232515 0 0)
(192.792712322444 0 0)
(192.79269747123274 0 0)
(192.79268262002148 0 0)
(192.79266776881022 0 0)
(192.7926479671952 0 0)
(192.79263311598393 0 0)
(192.7926133143689 0 0)
(192.79258856235015 0 0)
(192.79256876073512 0 0)
(192.79254400871636 0 0)
(192.79251925669757 0 0)
(192.79248955427505 0 0)
(192.7924648022563 0 0)
(192.79243014943 0 0)
(192.79239549660372 0 0)
(192.79236084377746 0 0)
(192.79232619095117 0 0)
(192.7922816373174 0 0)
(192.7922370836836 0 0)
(192.79219253004982 0 0)
(192.79214302601227 0 0)
(192.79208857157096 0 0)
(192.79203411712967 0 0)
(192.79196976188086 0 0)
(192.79190540663205 0 0)
(192.7918361009795 0 0)
(192.7917618449232 0 0)
(192.79168263846313 0 0)
(192.79159353119556 0 0)
(192.79150442392796 0 0)
(192.7914054158529 0 0)
(192.79130145737406 0 0)
(192.7911875980877 0 0)
(193.26812480294382 0 0)
(193.26811930469773 0 0)
(193.2681083082056 0 0)
(193.26809731171343 0 0)
(193.2680863152213 0 0)
(193.26807531872913 0 0)
(193.2680588239909 0 0)
(193.26804782749875 0 0)
(193.26803133276053 0 0)
(193.2680148380223 0 0)
(193.2679983432841 0 0)
(193.26798184854584 0 0)
(193.26796535380763 0 0)
(193.26794336082332 0 0)
(193.26792136783902 0 0)
(193.26789937485472 0 0)
(193.26787188362434 0 0)
(193.26784439239395 0 0)
(193.2678169011636 0 0)
(193.26778391168713 0 0)
(193.26775092221067 0 0)
(193.26771793273423 0 0)
(193.2676794450117 0 0)
(193.26764095728916 0 0)
(193.26759697132056 0 0)
(193.26755298535195 0 0)
(193.26750350113727 0 0)
(193.26744851867653 0 0)
(193.26739353621576 0 0)
(193.26733305550894 0 0)
(193.26726707655604 0 0)
(193.26720109760313 0 0)
(193.26712962040415 0 0)
(193.267047146713 0 0)
(193.26696467302187 0 0)
(193.26687670108467 0 0)
(193.2667777326553 0 0)
(193.26667876422596 0 0)
(193.26656879930442 0 0)
(193.26644783789078 0 0)
(193.26632137823103 0 0)
(193.26618942032522 0 0)
(193.78760653588643 0 0)
(193.78760653588643 0 0)
(193.78760653588643 0 0)
(193.7875461429719 0 0)
(193.7875461429719 0 0)
(193.7875461429719 0 0)
(193.7875461429719 0 0)
(193.78748575005736 0 0)
(193.78748575005736 0 0)
(193.78748575005736 0 0)
(193.78742535714284 0 0)
(193.78742535714284 0 0)
(193.78742535714284 0 0)
(193.7873649642283 0 0)
(193.7873649642283 0 0)
(193.78730457131377 0 0)
(193.78730457131377 0 0)
(193.78724417839922 0 0)
(193.78724417839922 0 0)
(193.7871837854847 0 0)
(193.7871837854847 0 0)
(193.78712339257015 0 0)
(193.78706299965563 0 0)
(193.78700260674108 0 0)
(193.78700260674108 0 0)
(193.78694221382656 0 0)
(193.78688182091201 0 0)
(193.7868214279975 0 0)
(193.78676103508295 0 0)
(193.78670064216843 0 0)
(193.78657985633936 0 0)
(193.7865194634248 0 0)
(193.78639867759577 0 0)
(193.78633828468122 0 0)
(193.78621749885215 0 0)
(193.78615710593763 0 0)
(193.78603632010856 0 0)
(193.7859155342795 0 0)
(193.78579474845043 0 0)
(193.7856135697068 0 0)
(193.78549278387774 0 0)
(193.78531160513415 0 0)
(194.35097483790298 0 0)
(194.35097483790298 0 0)
(194.35097483790298 0 0)
(194.35097483790298 0 0)
(194.3509090084683 0 0)
(194.3509090084683 0 0)
(194.3509090084683 0 0)
(194.3509090084683 0 0)
(194.3508431790336 0 0)
(194.3508431790336 0 0)
(194.3508431790336 0 0)
(194.35077734959893 0 0)
(194.35077734959893 0 0)
(194.35077734959893 0 0)
(194.35071152016425 0 0)
(194.35071152016425 0 0)
(194.35064569072958 0 0)
(194.35064569072958 0 0)
(194.35057986129488 0 0)
(194.3505140318602 0 0)
(194.3505140318602 0 0)
(194.35044820242553 0 0)
(194.35038237299082 0 0)
(194.35031654355615 0 0)
(194.35025071412147 0 0)
(194.3501848846868 0 0)
(194.3501190552521 0 0)
(194.35005322581742 0 0)
(194.34998739638274 0 0)
(194.34992156694804 0 0)
(194.34985573751337 0 0)
(194.34972407864402 0 0)
(194.3496582492093 0 0)
(194.34952659033996 0 0)
(194.34939493147058 0 0)
(194.3493291020359 0 0)
(194.34919744316653 0 0)
(194.3489999548625 0 0)
(194.34886829599313 0 0)
(194.34873663712375 0 0)
(194.34853914881973 0 0)
(194.34834166051567 0 0)
(194.9580090030967 0 0)
(194.9580090030967 0 0)
(194.95793772148969 0 0)
(194.95793772148969 0 0)
(194.95793772148969 0 0)
(194.95793772148969 0 0)
(194.9578664398827 0 0)
(194.9578664398827 0 0)
(194.9578664398827 0 0)
(194.9577951582757 0 0)
(194.9577951582757 0 0)
(194.9577951582757 0 0)
(194.9577238766687 0 0)
(194.9577238766687 0 0)
(194.9576525950617 0 0)
(194.9576525950617 0 0)
(194.9575813134547 0 0)
(194.9575813134547 0 0)
(194.9575100318477 0 0)
(194.9574387502407 0 0)
(194.9574387502407 0 0)
(194.95736746863372 0 0)
(194.9572961870267 0 0)
(194.9572249054197 0 0)
(194.95715362381273 0 0)
(194.95708234220572 0 0)
(194.95701106059872 0 0)
(194.9569397789917 0 0)
(194.95686849738473 0 0)
(194.95679721577773 0 0)
(194.95665465256374 0 0)
(194.95658337095674 0 0)
(194.95644080774275 0 0)
(194.95629824452874 0 0)
(194.95622696292173 0 0)
(194.95608439970775 0 0)
(194.95587055488676 0 0)
(194.95572799167277 0 0)
(194.95558542845876 0 0)
(194.95537158363777 0 0)
(194.9552290204238 0 0)
(194.9550151756028 0 0)
(195.6077888411811 0 0)
(195.6077888411811 0 0)
(195.6077888411811 0 0)
(195.6077888411811 0 0)
(195.60771214384422 0 0)
(195.60771214384422 0 0)
(195.60771214384422 0 0)
(195.60771214384422 0 0)
(195.60763544650735 0 0)
(195.60763544650735 0 0)
(195.60755874917047 0 0)
(195.60755874917047 0 0)
(195.60755874917047 0 0)
(195.60748205183356 0 0)
(195.60748205183356 0 0)
(195.60740535449668 0 0)
(195.60740535449668 0 0)
(195.6073286571598 0 0)
(195.60725195982292 0 0)
(195.60725195982292 0 0)
(195.60717526248604 0 0)
(195.60709856514916 0 0)
(195.60702186781225 0 0)
(195.60694517047537 0 0)
(195.6068684731385 0 0)
(195.6067917758016 0 0)
(195.60671507846473 0 0)
(195.60663838112785 0 0)
(195.60656168379094 0 0)
(195.60640828911718 0 0)
(195.6063315917803 0 0)
(195.60617819710654 0 0)
(195.60610149976964 0 0)
(195.60594810509588 0 0)
(195.60579471042212 0 0)
(195.60564131574833 0 0)
(195.60548792107457 0 0)
(195.60525782906393 0 0)
(195.60510443439014 0 0)
(195.6048743423795 0 0)
(195.60464425036884 0 0)
(195.6044141583582 0 0)
(196.29979334240042 0 0)
(196.29979334240042 0 0)
(196.29979334240042 0 0)
(196.29979334240042 0 0)
(196.29971125408474 0 0)
(196.29971125408474 0 0)
(196.29971125408474 0 0)
(196.29962916576906 0 0)
(196.29962916576906 0 0)
(196.29962916576906 0 0)
(196.29954707745335 0 0)
(196.29954707745335 0 0)
(196.29954707745335 0 0)
(196.29946498913768 0 0)
(196.29946498913768 0 0)
(196.299382900822 0 0)
(196.29930081250632 0 0)
(196.29930081250632 0 0)
(196.29921872419064 0 0)
(196.29913663587496 0 0)
(196.29913663587496 0 0)
(196.29905454755925 0 0)
(196.29897245924357 0 0)
(196.2988903709279 0 0)
(196.2988082826122 0 0)
(196.29872619429653 0 0)
(196.29864410598083 0 0)
(196.29847992934947 0 0)
(196.2983978410338 0 0)
(196.2983157527181 0 0)
(196.29815157608672 0 0)
(196.29806948777104 0 0)
(196.2979053111397 0 0)
(196.2977411345083 0 0)
(196.29757695787694 0 0)
(196.29741278124558 0 0)
(196.2972486046142 0 0)
(196.29700233966716 0 0)
(196.29683816303577 0 0)
(196.29659189808874 0 0)
(196.29634563314167 0 0)
(196.29609936819463 0 0)
(197.03391177554022 0 0)
(197.03391177554022 0 0)
(197.03391177554022 0 0)
(197.03382425545996 0 0)
(197.03382425545996 0 0)
(197.03382425545996 0 0)
(197.0337367353797 0 0)
(197.0337367353797 0 0)
(197.0337367353797 0 0)
(197.03364921529948 0 0)
(197.03364921529948 0 0)
(197.03356169521922 0 0)
(197.03356169521922 0 0)
(197.03356169521922 0 0)
(197.03347417513896 0 0)
(197.0333866550587 0 0)
(197.0333866550587 0 0)
(197.03329913497848 0 0)
(197.03321161489822 0 0)
(197.03321161489822 0 0)
(197.03312409481796 0 0)
(197.0330365747377 0 0)
(197.03294905465745 0 0)
(197.03286153457722 0 0)
(197.03277401449697 0 0)
(197.0326864944167 0 0)
(197.03259897433645 0 0)
(197.03251145425622 0 0)
(197.0323364140957 0 0)
(197.03224889401545 0 0)
(197.03207385385497 0 0)
(197.0319863337747 0 0)
(197.0318112936142 0 0)
(197.0316362534537 0 0)
(197.0314612132932 0 0)
(197.0312861731327 0 0)
(197.03102361289194 0 0)
(197.03084857273146 0 0)
(197.03058601249072 0 0)
(197.03032345224995 0 0)
(197.0300608920092 0 0)
(197.02979833176846 0 0)
(197.8100736086862 0 0)
(197.8100736086862 0 0)
(197.8100736086862 0 0)
(197.8100736086862 0 0)
(197.8099805994791 0 0)
(197.8099805994791 0 0)
(197.8099805994791 0 0)
(197.809887590272 0 0)
(197.809887590272 0 0)
(197.809887590272 0 0)
(197.80979458106492 0 0)
(197.80979458106492 0 0)
(197.80970157185786 0 0)
(197.80970157185786 0 0)
(197.80960856265077 0 0)
(197.80960856265077 0 0)
(197.80951555344367 0 0)
(197.80942254423658 0 0)
(197.80942254423658 0 0)
(197.8093295350295 0 0)
(197.8092365258224 0 0)
(197.8091435166153 0 0)
(197.80905050740824 0 0)
(197.80895749820115 0 0)
(197.80886448899406 0 0)
(197.80877147978697 0 0)
(197.80867847057988 0 0)
(197.8085854613728 0 0)
(197.80839944295863 0 0)
(197.80830643375154 0 0)
(197.80812041533736 0 0)
(197.80802740613026 0 0)
(197.80784138771608 0 0)
(197.80765536930193 0 0)
(197.80746935088774 0 0)
(197.80719032326647 0 0)
(197.8070043048523 0 0)
(197.80681828643813 0 0)
(197.80653925881685 0 0)
(197.8062602311956 0 0)
(197.80598120357433 0 0)
(197.805609166746 0 0)
(198.62708186029482 0 0)
(198.62708186029482 0 0)
(198.6269834729813 0 0)
(198.6269834729813 0 0)
(198.6269834729813 0 0)
(198.6269834729813 0 0)
(198.62688508566774 0 0)
(198.62688508566774 0 0)
(198.62688508566774 0 0)
(198.6267866983542 0 0)
(198.6267866983542 0 0)
(198.62668831104068 0 0)
(198.62668831104068 0 0)
(198.62658992372715 0 0)
(198.62658992372715 0 0)
(198.6264915364136 0 0)
(198.6264915364136 0 0)
(198.62639314910007 0 0)
(198.62629476178654 0 0)
(198.62619637447298 0 0)
(198.62619637447298 0 0)
(198.62609798715945 0 0)
(198.62599959984593 0 0)
(198.62590121253237 0 0)
(198.62580282521884 0 0)
(198.62560605059178 0 0)
(198.62550766327823 0 0)
(198.6254092759647 0 0)
(198.62521250133761 0 0)
(198.6251141140241 0 0)
(198.62491733939703 0 0)
(198.62481895208347 0 0)
(198.62462217745642 0 0)
(198.62442540282933 0 0)
(198.62422862820225 0 0)
(198.62393346626166 0 0)
(198.62373669163458 0 0)
(198.62344152969396 0 0)
(198.62324475506688 0 0)
(198.6229495931263 0 0)
(198.62255604387212 0 0)
(198.62226088193154 0 0)
(199.48490544983187 0 0)
(199.48480162223692 0 0)
(199.48480162223692 0 0)
(199.48480162223692 0 0)
(199.48480162223692 0 0)
(199.48469779464196 0 0)
(199.48469779464196 0 0)
(199.48469779464196 0 0)
(199.484593967047 0 0)
(199.484593967047 0 0)
(199.48449013945205 0 0)
(199.48449013945205 0 0)
(199.4843863118571 0 0)
(199.4843863118571 0 0)
(199.48428248426214 0 0)
(199.48428248426214 0 0)
(199.48417865666718 0 0)
(199.4840748290722 0 0)
(199.4840748290722 0 0)
(199.48397100147724 0 0)
(199.4838671738823 0 0)
(199.48376334628733 0 0)
(199.48365951869238 0 0)
(199.48355569109742 0 0)
(199.48345186350247 0 0)
(199.4833480359075 0 0)
(199.48324420831256 0 0)
(199.48303655312264 0 0)
(199.4829327255277 0 0)
(199.48272507033778 0 0)
(199.48262124274282 0 0)
(199.48241358755288 0 0)
(199.48220593236297 0 0)
(199.48199827717306 0 0)
(199.48179062198315 0 0)
(199.48158296679324 0 0)
(199.48127148400837 0 0)
(199.48106382881846 0 0)
(199.48075234603357 0 0)
(199.4804408632487 0 0)
(199.48012938046384 0 0)
(199.47971407008401 0 0)
(200.38354543361973 0 0)
(200.38354543361973 0 0)
(200.38343611002074 0 0)
(200.38343611002074 0 0)
(200.38343611002074 0 0)
(200.38332678642172 0 0)
(200.38332678642172 0 0)
(200.38332678642172 0 0)
(200.38321746282273 0 0)
(200.38321746282273 0 0)
(200.38321746282273 0 0)
(200.38310813922374 0 0)
(200.38310813922374 0 0)
(200.38299881562472 0 0)
(200.38299881562472 0 0)
(200.38288949202573 0 0)
(200.38278016842673 0 0)
(200.38278016842673 0 0)
(200.38267084482771 0 0)
(200.38256152122872 0 0)
(200.38245219762973 0 0)
(200.3823428740307 0 0)
(200.38223355043172 0 0)
(200.38212422683273 0 0)
(200.3820149032337 0 0)
(200.38190557963472 0 0)
(200.38179625603573 0 0)
(200.38157760883772 0 0)
(200.38146828523873 0 0)
(200.3812496380407 0 0)
(200.38114031444172 0 0)
(200.3809216672437 0 0)
(200.3807030200457 0 0)
(200.3804843728477 0 0)
(200.3802657256497 0 0)
(200.3800470784517 0 0)
(200.3797191076547 0 0)
(200.3793911368577 0 0)
(200.37917248965968 0 0)
(200.37884451886268 0 0)
(200.37840722446668 0 0)
(200.37807925366968 0 0)
(201.32182962351888 0 0)
(201.3217149048259 0 0)
(201.3217149048259 0 0)
(201.3217149048259 0 0)
(201.3217149048259 0 0)
(201.3216001861329 0 0)
(201.3216001861329 0 0)
(201.3216001861329 0 0)
(201.32148546743994 0 0)
(201.32148546743994 0 0)
(201.32137074874694 0 0)
(201.32137074874694 0 0)
(201.32125603005397 0 0)
(201.32125603005397 0 0)
(201.32114131136098 0 0)
(201.32114131136098 0 0)
(201.321026592668 0 0)
(201.32091187397504 0 0)
(201.32091187397504 0 0)
(201.32079715528204 0 0)
(201.32068243658907 0 0)
(201.32056771789607 0 0)
(201.3204529992031 0 0)
(201.32033828051013 0 0)
(201.32022356181713 0 0)
(201.32010884312416 0 0)
(201.31999412443116 0 0)
(201.3197646870452 0 0)
(201.31964996835222 0 0)
(201.31942053096626 0 0)
(201.31930581227329 0 0)
(201.31907637488732 0 0)
(201.31884693750135 0 0)
(201.31861750011538 0 0)
(201.3183880627294 0 0)
(201.31804390665047 0 0)
(201.3178144692645 0 0)
(201.31747031318557 0 0)
(201.31712615710663 0 0)
(201.3167820010277 0 0)
(201.31643784494872 0 0)
(201.31609368886978 0 0)
(202.3001827568219 0 0)
(202.3001827568219 0 0)
(202.3001827568219 0 0)
(202.3001827568219 0 0)
(202.3000625217066 0 0)
(202.3000625217066 0 0)
(202.3000625217066 0 0)
(202.29994228659126 0 0)
(202.29994228659126 0 0)
(202.29994228659126 0 0)
(202.29982205147596 0 0)
(202.29982205147596 0 0)
(202.29970181636065 0 0)
(202.29970181636065 0 0)
(202.29958158124532 0 0)
(202.29946134613002 0 0)
(202.29946134613002 0 0)
(202.2993411110147 0 0)
(202.29922087589938 0 0)
(202.29922087589938 0 0)
(202.29910064078408 0 0)
(202.29898040566877 0 0)
(202.29886017055344 0 0)
(202.29873993543814 0 0)
(202.29861970032283 0 0)
(202.2984994652075 0 0)
(202.2982589949769 0 0)
(202.2981387598616 0 0)
(202.29789828963095 0 0)
(202.29777805451565 0 0)
(202.297537584285 0 0)
(202.2974173491697 0 0)
(202.29717687893907 0 0)
(202.29693640870843 0 0)
(202.2965757033625 0 0)
(202.29633523313188 0 0)
(202.29609476290125 0 0)
(202.2957340575553 0 0)
(202.29537335220937 0 0)
(202.29501264686343 0 0)
(202.2946519415175 0 0)
(202.29417100105624 0 0)
(203.31784032270315 0 0)
(203.31784032270315 0 0)
(203.31784032270315 0 0)
(203.31771463941726 0 0)
(203.31771463941726 0 0)
(203.31771463941726 0 0)
(203.31771463941726 0 0)
(203.31758895613137 0 0)
(203.31758895613137 0 0)
(203.31746327284546 0 0)
(203.31746327284546 0 0)
(203.31733758955957 0 0)
(203.31733758955957 0 0)
(203.31721190627368 0 0)
(203.31721190627368 0 0)
(203.3170862229878 0 0)
(203.3170862229878 0 0)
(203.31696053970188 0 0)
(203.316834856416 0 0)
(203.3167091731301 0 0)
(203.3167091731301 0 0)
(203.31658348984422 0 0)
(203.31645780655833 0 0)
(203.31633212327242 0 0)
(203.31620643998653 0 0)
(203.31595507341476 0 0)
(203.31582939012884 0 0)
(203.31570370684295 0 0)
(203.31545234027118 0 0)
(203.31532665698526 0 0)
(203.3150752904135 0 0)
(203.3148239238417 0 0)
(203.3146982405558 0 0)
(203.31444687398402 0 0)
(203.31406982412634 0 0)
(203.31381845755456 0 0)
(203.31356709098276 0 0)
(203.3131900411251 0 0)
(203.3128129912674 0 0)
(203.31243594140972 0 0)
(203.31205889155203 0 0)
(203.31155615840845 0 0)
(204.3744365503661 0 0)
(204.3744365503661 0 0)
(204.3744365503661 0 0)
(204.3744365503661 0 0)
(204.3743053939327 0 0)
(204.3743053939327 0 0)
(204.3743053939327 0 0)
(204.37417423749926 0 0)
(204.37417423749926 0 0)
(204.37404308106585 0 0)
(204.37404308106585 0 0)
(204.37404308106585 0 0)
(204.3739119246324 0 0)
(204.3739119246324 0 0)
(204.373780768199 0 0)
(204.37364961176556 0 0)
(204.37364961176556 0 0)
(204.37351845533215 0 0)
(204.37338729889873 0 0)
(204.37338729889873 0 0)
(204.3732561424653 0 0)
(204.37312498603188 0 0)
(204.37299382959844 0 0)
(204.37286267316503 0 0)
(204.3727315167316 0 0)
(204.37260036029818 0 0)
(204.37233804743133 0 0)
(204.37220689099792 0 0)
(204.37207573456448 0 0)
(204.37181342169762 0 0)
(204.3715511088308 0 0)
(204.37141995239736 0 0)
(204.3711576395305 0 0)
(204.37089532666366 0 0)
(204.37063301379683 0 0)
(204.37023954449654 0 0)
(204.3699772316297 0 0)
(204.36958376232943 0 0)
(204.36932144946257 0 0)
(204.3689279801623 0 0)
(204.3684033544286 0 0)
(204.36800988512834 0 0)
(205.46960384717303 0 0)
(205.46960384717303 0 0)
(205.46946722450627 0 0)
(205.46946722450627 0 0)
(205.46946722450627 0 0)
(205.4693306018395 0 0)
(205.4693306018395 0 0)
(205.4693306018395 0 0)
(205.46919397917273 0 0)
(205.46919397917273 0 0)
(205.46919397917273 0 0)
(205.46905735650597 0 0)
(205.46905735650597 0 0)
(205.46892073383918 0 0)
(205.46892073383918 0 0)
(205.46878411117243 0 0)
(205.46864748850567 0 0)
(205.46864748850567 0 0)
(205.46851086583888 0 0)
(205.46837424317212 0 0)
(205.46823762050536 0 0)
(205.46823762050536 0 0)
(205.4681009978386 0 0)
(205.46796437517182 0 0)
(205.46782775250506 0 0)
(205.4675545071715 0 0)
(205.46741788450475 0 0)
(205.467281261838 0 0)
(205.46700801650445 0 0)
(205.4668713938377 0 0)
(205.46659814850415 0 0)
(205.4664615258374 0 0)
(205.46618828050384 0 0)
(205.46591503517033 0 0)
(205.46564178983678 0 0)
(205.46536854450324 0 0)
(205.46495867650293 0 0)
(205.4646854311694 0 0)
(205.4642755631691 0 0)
(205.4638656951688 0 0)
(205.4634558271685 0 0)
(205.46290933650144 0 0)
(206.6029689574115 0 0)
(206.6029689574115 0 0)
(206.6029689574115 0 0)
(206.60282684266411 0 0)
(206.60282684266411 0 0)
(206.60282684266411 0 0)
(206.60268472791677 0 0)
(206.60268472791677 0 0)
(206.60268472791677 0 0)
(206.6025426131694 0 0)
(206.6025426131694 0 0)
(206.6025426131694 0 0)
(206.60240049842204 0 0)
(206.60240049842204 0 0)
(206.60225838367467 0 0)
(206.6021162689273 0 0)
(206.6021162689273 0 0)
(206.60197415417994 0 0)
(206.60183203943257 0 0)
(206.60183203943257 0 0)
(206.6016899246852 0 0)
(206.60154780993784 0 0)
(206.60140569519046 0 0)
(206.60126358044312 0 0)
(206.60112146569574 0 0)
(206.60097935094836 0 0)
(206.60083723620102 0 0)
(206.6005530067063 0 0)
(206.60041089195892 0 0)
(206.60026877721154 0 0)
(206.59998454771682 0 0)
(206.5997003182221 0 0)
(206.59955820347471 0 0)
(206.59927397398 0 0)
(206.59898974448527 0 0)
(206.59856340024317 0 0)
(206.59827917074844 0 0)
(206.59799494125372 0 0)
(206.59756859701162 0 0)
(206.59714225276952 0 0)
(206.59671590852741 0 0)
(206.5962895642853 0 0)
(207.77458293871194 0 0)
(207.77458293871194 0 0)
(207.77458293871194 0 0)
(207.77458293871194 0 0)
(207.77443528729654 0 0)
(207.77443528729654 0 0)
(207.77443528729654 0 0)
(207.7742876358811 0 0)
(207.7742876358811 0 0)
(207.7742876358811 0 0)
(207.7741399844657 0 0)
(207.7741399844657 0 0)
(207.7739923330503 0 0)
(207.7739923330503 0 0)
(207.77384468163487 0 0)
(207.77384468163487 0 0)
(207.77369703021947 0 0)
(207.77369703021947 0 0)
(207.77354937880406 0 0)
(207.77340172738863 0 0)
(207.77325407597323 0 0)
(207.77310642455782 0 0)
(207.77310642455782 0 0)
(207.7729587731424 0 0)
(207.772811121727 0 0)
(207.77251581889615 0 0)
(207.77236816748075 0 0)
(207.77222051606535 0 0)
(207.7720728646499 0 0)
(207.7717775618191 0 0)
(207.7716299104037 0 0)
(207.77133460757287 0 0)
(207.77103930474203 0 0)
(207.77074400191123 0 0)
(207.7704486990804 0 0)
(207.77015339624955 0 0)
(207.76985809341875 0 0)
(207.7695627905879 0 0)
(207.76911983634167 0 0)
(207.76867688209543 0 0)
(207.7682339278492 0 0)
(207.76779097360296 0 0)
(208.9840681813704 0 0)
(208.98391500441463 0 0)
(208.98391500441463 0 0)
(208.98391500441463 0 0)