/*--------------------------------*- C++ -*----------------------------------*\
  =========                 |
  \\      /  F ield         | OpenFOAM: The Open Source CFD Toolbox
   \\    /   O peration     | Website:  https://openfoam.org
    \\  /    A nd           | Version:  6
     \\/     M anipulation  |
\*---------------------------------------------------------------------------*/
FoamFile
{
    version     2.0;
    format      ascii;
    class       volScalarField;
    location    "0";
    object      Ma;
}
// * * * * * * * * * * * * * * * * * * * * * * * * * * * * * * * * * * * * * //

dimensions      [0 0 0 0 0 0 0];

internalField   nonuniform List<scalar>
8988
(
0.4735572030393217
0.4735572030393217
0.4735572030393217
0.4735572030393217
0.4735572030393217
0.4735572030393217
0.4735572030393217
0.4735572030393217
0.4735572030393217
0.4735572030393217
0.4735572030393217
0.4735572030393217
0.4735572030393217
0.4735572030393217
0.4735572030393217
0.4735572030393217
0.4735572030393217
0.4735572030393217
0.4735572030393217
0.4735572030393217
0.4735572030393217
0.4735572030393217
0.4735572030393217
0.4735572030393217
0.4735572030393217
0.4735572030393217
0.4735572030393217
0.4735572030393217
0.4735572030393217
0.4735572030393217
0.4735572030393217
0.4735572030393217
0.4735572030393217
0.4735572030393217
0.4735572030393217
0.4735572030393217
0.4735572030393217
0.4735572030393217
0.4735572030393217
0.4735572030393217
0.4735572030393217
0.4735572030393217
0.4736869009785487
0.4736868995446285
0.4736868995446285
0.4736868995446285
0.4736868981107083
0.4736868981107083
0.4736868981107083
0.4736868966767881
0.4736868966767881
0.4736868952428679
0.4736868952428679
0.4736868938089477
0.4736868938089477
0.4736868923750275
0.4736868923750275
0.4736868909411073
0.47368688950718707
0.47368688807326687
0.47368688663934666
0.47368688663934666
0.47368688520542646
0.47368688377150625
0.47368688090366584
0.47368687946974564
0.47368687803582543
0.4736868766019052
0.4736868737340648
0.4736868723001446
0.4736868694323042
0.4736868665644638
0.4736868636966234
0.4736868608287829
0.4736868579609425
0.4736868550931021
0.4736868507913415
0.4736868479235011
0.47368684362174046
0.47368683931997985
0.47368683501821923
0.4736868292825384
0.4736868249807778
0.473686819245097
0.47394473569803913
0.47394473569803913
0.47394473569803913
0.4739447328330816
0.47394472996812403
0.47394472996812403
0.4739447271031665
0.4739447271031665
0.47394472423820894
0.4739447213732514
0.47394471850829384
0.4739447156433363
0.4739447156433363
0.47394471277837874
0.47394470704846364
0.4739447041835061
0.47394470131854854
0.473944698453591
0.4739446927236759
0.47394468985871835
0.47394468412880325
0.4739446812638457
0.4739446755339306
0.4739446698040155
0.4739446640741004
0.47394465547922776
0.4739446497493127
0.4739446440193976
0.473944635424525
0.4739446268296523
0.4739446182347797
0.4739446067749495
0.47394459818007684
0.47394458672024664
0.47394457526041645
0.47394456380058625
0.4739445494757985
0.47394453515101076
0.47394451796126547
0.4739445036364777
0.4739444864467325
0.47394446639202964
0.4743293890501413
0.4743293847545943
0.4743293847545943
0.4743293804590472
0.4743293761635002
0.4743293718679531
0.47432936757240607
0.474329363276859
0.474329363276859
0.47432935468576487
0.47432935039021784
0.47432934609467076
0.4743293417991237
0.4743293332080296
0.4743293289124826
0.47432932032138847
0.4743293160258414
0.47432930743474727
0.47432929884365316
0.47432929025255904
0.474329281661465
0.4743292687748238
0.4743292601837297
0.47432924729708853
0.47432923441044733
0.4743292215238062
0.47432920863716505
0.4743291914549768
0.4743291742727886
0.47432915709060036
0.47432913990841213
0.4743291184306769
0.4743290969529416
0.47432907547520636
0.474329049701924
0.4743290239286417
0.47432899815535934
0.47432896808652997
0.4743289337221535
0.4743288993577771
0.47432886499340066
0.47432882633347717
0.47483886442550016
0.47483885870735415
0.4748388529892081
0.47483884727106207
0.474838841552916
0.47483883583477
0.474838830116624
0.4748388243984779
0.4748388186803319
0.4748388072440398
0.4748388015258938
0.4748387900896017
0.47483878437145566
0.47483877293516363
0.47483876149887155
0.4748387500625795
0.4748387386262874
0.4748387271899953
0.4748387100355572
0.47483869288111913
0.47483868144482705
0.47483866429038896
0.47483864141780485
0.4748386242633667
0.4748386013907826
0.47483857851819844
0.47483855564561434
0.4748385327730302
0.4748385041823
0.47483847559156983
0.47483844128269365
0.4748384069738174
0.4748383726649412
0.47483833263791897
0.4748382926108967
0.47483824686572845
0.4748382011205602
0.47483814965724586
0.47483809247578557
0.4748380352943252
0.4748379781128649
0.47483790949511245
0.4754713801244774
0.47547137298958103
0.4754713658546847
0.4754713587197883
0.4754713515848919
0.4754713444499955
0.47547133018020277
0.47547132304530637
0.47547131591041003
0.47547130164061724
0.4754712873708245
0.4754712731010317
0.475471258831239
0.4754712445614462
0.47547123029165345
0.4754712088869643
0.4754711946171715
0.4754711732124824
0.47547115180779326
0.4754711304031041
0.475471108998415
0.47547108045882946
0.47547105191924394
0.4754710233796584
0.47547098770517654
0.475470959165591
0.47547091635621275
0.4754708806817308
0.47547083787235256
0.4754707950629743
0.47547074511869963
0.475470695174425
0.4754706380952539
0.47547058101608286
0.47547052393691186
0.475470452587948
0.4754703812389842
0.4754703098900204
0.4754702242712639
0.4754701386525073
0.4754700458988544
0.47546994601030507
0.4762253573973151
0.47622534884949835
0.47622534030168157
0.47622533175386483
0.47622532320604805
0.4762253061104145
0.4762252975625978
0.4762252804669643
0.47622526337133075
0.47622524627569723
0.4762252291800637
0.4762252120844302
0.4762251949887967
0.47622516934534637
0.4762251522497129
0.4762251266062626
0.47622510096281234
0.4762250667715453
0.476225041128095
0.47622500693682795
0.47622497274556097
0.47622493855429393
0.4762248958152101
0.47622486162394306
0.4762248103370425
0.47622476759795873
0.47622471631105817
0.4762246564763409
0.4762246051894403
0.47622453680690624
0.47622447697218895
0.4762244000418381
0.47622432311148727
0.47622424618113646
0.47622416070296886
0.4762240666769845
0.4762239641031834
0.4762238615293823
0.4762237418599477
0.47622362219051306
0.4762234939732617
0.47622335720819353
0.4771003327644215
0.47710032279489645
0.47710031282537135
0.4771002928863212
0.4771002829167962
0.47710026297774605
0.4771002430386959
0.4771002230996458
0.47710020316059565
0.47710018322154557
0.47710016328249544
0.4771001333739202
0.47710011343487013
0.4771000835262949
0.47710005361771973
0.47710002370914456
0.4770999838310443
0.4770999539224691
0.47709991404436886
0.47709986419674355
0.4770998243186433
0.477099774471018
0.4770997246233927
0.47709966480624233
0.47709960498909193
0.47709954517194153
0.4770994753852661
0.47709940559859065
0.4770993258423902
0.4770992460861897
0.4770991563604641
0.47709906663473856
0.47709896693948795
0.47709885727471224
0.4770987376404115
0.47709861800611075
0.4770984884022849
0.47709834882893404
0.4770981893165331
0.4770980298041321
0.477097860322206
0.4770976709012298
0.47809326076959696
0.47809323802861775
0.47809322665812815
0.47809320391714893
0.47809319254665933
0.47809316980568006
0.47809314706470085
0.47809312432372164
0.4780930902122528
0.4780930674712736
0.47809303335980474
0.47809301061882553
0.4780929765073567
0.4780929423958879
0.4780928969139294
0.4780928628024606
0.4780928173205022
0.47809277183854376
0.4780927149860957
0.47809266950413726
0.47809261265168923
0.47809254442875154
0.4780924762058139
0.4780924079828762
0.4780923397599386
0.4780922601665113
0.4780921692025944
0.47809207823867755
0.47809198727476065
0.47809187356986454
0.4780917598649685
0.4780916461600724
0.47809152108468667
0.47809138463881135
0.4780912368224464
0.4780910776355919
0.47809090707824775
0.47809072515041395
0.4780905432225802
0.47809033855376726
0.47809011114397504
0.4780898837341829
0.47920309748920004
0.4792030847157185
0.47920305916875533
0.4792030336217922
0.4792030080748291
0.4792029825278659
0.47920295698090276
0.47920293143393966
0.47920289311349495
0.4792028675665318
0.4792028292460871
0.4792027909256424
0.4792027526051977
0.4792027015112714
0.4792026631908267
0.4792026120969004
0.47920254822949254
0.4792024971355663
0.4792024332681584
0.4792023694007506
0.4792022927598612
0.47920222889245334
0.4792021394780824
0.47920205006371136
0.4792019606493404
0.47920187123496943
0.4792017562736353
0.4792016413123012
0.479201526350967
0.47920139861615135
0.4792012581078541
0.47920111759955686
0.4792009515442964
0.47920078548903605
0.47920060666029407
0.47920041505807054
0.47920021068236546
0.4791999807596972
0.479199750837029
0.4791994953673976
0.47919922712428464
0.47919893333420854
0.480429900467946
0.48042988627704974
0.48042985789525733
0.48042982951346486
0.4804298011316724
0.48042977274987997
0.48042973017719126
0.4804297017953988
0.48042965922271014
0.4804296166500215
0.4804295740773328
0.4804295315046441
0.4804294889319554
0.48042943216837053
0.48042937540478564
0.4804293186412007
0.4804292476867196
0.48042917673223845
0.4804291057777573
0.48042902063237997
0.4804289354870026
0.48042885034162525
0.48042875100535165
0.4804286516690781
0.4804285381419083
0.48042842461473845
0.48042829689667244
0.4804281549877102
0.4804280130787479
0.4804278569788894
0.48042768668813474
0.48042751639738
0.48042733191572906
0.4804271190522857
0.48042690618884226
0.48042667913450265
0.4804264236983706
0.4804261682622385
0.480425884444314
0.48042557224459703
0.48042524585398383
0.4804249052724744
0.4817710734797379
0.4817710734797379
0.4817710734797379
0.481770917560209
0.481770917560209
0.481770917560209
0.481770917560209
0.4817707616406801
0.4817707616406801
0.4817707616406801
0.4817706057211512
0.4817706057211512
0.4817706057211512
0.4817704498016223
0.4817704498016223
0.48177029388209336
0.48177029388209336
0.48177013796256446
0.48177013796256446
0.48176998204303556
0.48176998204303556
0.48176982612350666
0.48176967020397776
0.48176951428444886
0.48176951428444886
0.48176935836491996
0.481769202445391
0.4817690465258621
0.4817688906063332
0.4817687346868043
0.4817684228477465
0.4817682669282176
0.4817679550891598
0.48176779916963086
0.48176748733057306
0.48176733141104416
0.48176701957198637
0.4817667077329285
0.4817663958938707
0.481765928135284
0.4817656162962262
0.48176514853763946
0.48322602197057385
0.48322602197057385
0.48322602197057385
0.48322602197057385
0.4832258519602337
0.4832258519602337
0.4832258519602337
0.4832258519602337
0.48322568194989357
0.48322568194989357
0.48322568194989357
0.48322551193955343
0.48322551193955343
0.48322551193955343
0.48322534192921335
0.48322534192921335
0.4832251719188732
0.4832251719188732
0.48322500190853307
0.48322483189819293
0.48322483189819293
0.4832246618878528
0.48322449187751265
0.48322432186717257
0.48322415185683243
0.4832239818464923
0.48322381183615215
0.483223641825812
0.48322347181547187
0.4832233018051318
0.48322313179479165
0.48322279177411137
0.48322262176377123
0.48322228174309095
0.48322194172241073
0.4832217717120706
0.4832214316913903
0.48322092166036995
0.4832205816396897
0.4832202416190094
0.48321973158798903
0.4832192215569686
0.48479429214266534
0.48479429214266534
0.4847941079869382
0.4847941079869382
0.4847941079869382
0.4847941079869382
0.4847939238312111
0.4847939238312111
0.4847939238312111
0.484793739675484
0.484793739675484
0.484793739675484
0.4847935555197569
0.4847935555197569
0.4847933713640298
0.4847933713640298
0.48479318720830267
0.48479318720830267
0.48479300305257556
0.48479281889684844
0.48479281889684844
0.48479263474112133
0.4847924505853942
0.4847922664296671
0.48479208227394
0.4847918981182129
0.48479171396248577
0.48479152980675866
0.48479134565103155
0.48479116149530443
0.4847907931838502
0.4847906090281231
0.4847902407166689
0.48478987240521465
0.48478968824948754
0.4847893199380333
0.484788767470852
0.48478839915939775
0.48478803084794353
0.4847874783807622
0.48478711006930797
0.48478655760212663
0.486473630970224
0.486473630970224
0.486473630970224
0.486473630970224
0.48647343274798277
0.48647343274798277
0.48647343274798277
0.48647343274798277
0.4864732345257416
0.4864732345257416
0.48647303630350036
0.48647303630350036
0.48647303630350036
0.48647283808125913
0.48647283808125913
0.48647263985901795
0.48647263985901795
0.4864724416367767
0.4864722434145355
0.4864722434145355
0.4864720451922943
0.4864718469700531
0.48647164874781185
0.48647145052557067
0.48647125230332944
0.4864710540810882
0.48647085585884703
0.4864706576366058
0.48647045941436456
0.48647006296988216
0.4864698647476409
0.4864694683031585
0.4864692700809173
0.4864688736364349
0.48646847719195246
0.48646808074747006
0.4864676843029876
0.48646708963626395
0.48646669319178154
0.4864660985250579
0.48646550385833426
0.4864649091916106
0.48826282363575224
0.48826282363575224
0.48826282363575224
0.48826282363575224
0.4882626113946294
0.4882626113946294
0.4882626113946294
0.48826239915350655
0.48826239915350655
0.48826239915350655
0.4882621869123837
0.4882621869123837
0.4882621869123837
0.48826197467126087
0.48826197467126087
0.488261762430138
0.48826155018901524
0.48826155018901524
0.4882613379478924
0.48826112570676955
0.48826112570676955
0.4882609134656467
0.48826070122452386
0.488260488983401
0.4882602767422782
0.48826006450115533
0.4882598522600325
0.4882594277777868
0.488259215536664
0.48825900329554117
0.4882585788132955
0.48825836657217264
0.48825794208992696
0.48825751760768127
0.4882570931254356
0.48825666864318995
0.48825624416094426
0.48825560743757573
0.48825518295533005
0.4882545462319615
0.48825390950859304
0.4882532727852245
0.49016172406979097
0.49016172406979097
0.49016172406979097
0.4901614976868112
0.4901614976868112
0.4901614976868112
0.49016127130383147
0.49016127130383147
0.49016127130383147
0.4901610449208518
0.4901610449208518
0.490160818537872
0.490160818537872
0.490160818537872
0.49016059215489227
0.4901603657719125
0.4901603657719125
0.4901601393889328
0.4901599130059531
0.4901599130059531
0.4901596866229733
0.49015946023999357
0.4901592338570139
0.4901590074740341
0.4901587810910544
0.4901585547080746
0.4901583283250949
0.4901581019421152
0.4901576491761557
0.490157422793176
0.4901569700272165
0.4901567436442367
0.4901562908782773
0.4901558381123178
0.49015538534635833
0.4901549325803988
0.49015425343145963
0.49015380066550013
0.49015312151656093
0.49015244236762173
0.49015176321868253
0.4901510840697433
0.49217029934726725
0.49217029934726725
0.49217029934726725
0.49217029934726725
0.49217005865520286
0.49217005865520286
0.49217005865520286
0.4921698179631384
0.4921698179631384
0.4921698179631384
0.492169577271074
0.492169577271074
0.49216933657900963
0.49216933657900963
0.4921690958869452
0.4921690958869452
0.4921688551948808
0.4921686145028164
0.4921686145028164
0.492168373810752
0.49216813311868757
0.4921678924266232
0.4921676517345588
0.49216741104249434
0.49216717035042995
0.49216692965836556
0.49216668896630117
0.4921664482742367
0.49216596689010794
0.4921657261980435
0.4921652448139147
0.49216500412185027
0.4921645227377215
0.49216404135359265
0.49216355996946387
0.49216283789327064
0.4921623565091418
0.492161875125013
0.4921611530488198
0.4921604309726266
0.49215970889643335
0.49215874612817573
0.49428560874139077
0.49428560874139077
0.49428535400760054
0.49428535400760054
0.49428535400760054
0.49428535400760054
0.4942850992738103
0.4942850992738103
0.4942850992738103
0.4942848445400201
0.4942848445400201
0.4942845898062298
0.4942845898062298
0.4942843350724396
0.4942843350724396
0.49428408033864935
0.49428408033864935
0.4942838256048591
0.4942835708710689
0.49428331613727866
0.49428331613727866
0.4942830614034884
0.49428280666969815
0.4942825519359079
0.4942822972021177
0.49428178773453724
0.494281533000747
0.4942812782669567
0.49428076879937627
0.49428051406558604
0.4942800045980056
0.49427974986421536
0.49427924039663484
0.4942787309290544
0.49427822146147393
0.4942774572601032
0.49427694779252274
0.494276183591152
0.49427567412357154
0.49427490992220086
0.4942738909870399
0.4942731267856692
0.49650773589491937
0.49650746693738446
0.49650746693738446
0.49650746693738446
0.49650746693738446
0.49650719797984955
0.49650719797984955
0.49650719797984955
0.4965069290223146
0.4965069290223146
0.49650666006477967
0.49650666006477967
0.49650639110724476
0.49650639110724476
0.49650612214970985
0.49650612214970985
0.4965058531921749
0.49650558423464
0.49650558423464
0.49650531527710506
0.49650504631957015
0.49650477736203524
0.4965045084045003
0.49650423944696537
0.49650397048943046
0.49650370153189555
0.49650343257436064
0.49650289465929076
0.49650262570175585
0.496502087786686
0.49650181882915106
0.49650128091408124
0.49650074299901137
0.49650020508394155
0.4964996671688717
0.49649912925380185
0.49649832238119707
0.49649778446612725
0.49649697759352246
0.49649617072091773
0.49649536384831294
0.49649428801817325
0.4988368572239759
0.4988368572239759
0.49883657387588237
0.49883657387588237
0.49883657387588237
0.4988362905277888
0.4988362905277888
0.4988362905277888
0.49883600717969523
0.49883600717969523
0.49883600717969523
0.4988357238316017
0.4988357238316017
0.49883544048350814
0.49883544048350814
0.49883515713541454
0.498834873787321
0.498834873787321
0.49883459043922745
0.49883430709113386
0.4988340237430403
0.49883374039494677
0.4988334570468532
0.4988331736987596
0.4988328903506661
0.49883260700257254
0.49883232365447894
0.49883175695829185
0.4988314736101983
0.49883090691401116
0.4988306235659176
0.4988300568697305
0.4988294901735434
0.49882892347735625
0.49882835678116916
0.498827790084982
0.4988269400407013
0.49882608999642064
0.49882552330023355
0.49882467325595287
0.49882353986357864
0.49882268981929795
0.501270115515912
0.5012698180152039
0.5012698180152039
0.5012698180152039
0.5012698180152039
0.5012695205144958
0.5012695205144958
0.5012695205144958
0.5012692230137876
0.5012692230137876
0.5012689255130794
0.5012689255130794
0.5012686280123713
0.5012686280123713
0.5012683305116632
0.5012683305116632
0.501268033010955
0.5012677355102468
0.5012677355102468
0.5012674380095388
0.5012671405088306
0.5012668430081224
0.5012665455074143
0.5012662480067062
0.501265950505998
0.5012656530052898
0.5012653555045817
0.5012647605031654
0.5012644630024573
0.501263868001041
0.5012635705003328
0.5012629754989165
0.5012623804975003
0.5012617854960839
0.5012611904946677
0.5012602979925432
0.5012597029911269
0.5012588104890024
0.501257917986878
0.5012570254847536
0.5012561329826292
0.5012552404805047
0.5038088012371443
0.5038088012371443
0.5038088012371443
0.5038088012371443
0.5038084892443065
0.5038084892443065
0.5038084892443065
0.5038081772514688
0.5038081772514688
0.5038081772514688
0.5038078652586309
0.5038078652586309
0.5038075532657931
0.5038075532657931
0.5038072412729553
0.5038069292801175
0.5038069292801175
0.5038066172872797
0.5038063052944419
0.5038063052944419
0.503805993301604
0.5038056813087662
0.5038053693159285
0.5038050573230907
0.5038047453302529
0.503804433337415
0.5038038093517394
0.5038034973589016
0.503802873373226
0.5038025613803883
0.5038019373947126
0.5038016254018748
0.5038010014161992
0.5038003774305235
0.5037994414520102
0.5037988174663345
0.5037981934806589
0.5037972575021454
0.5037963215236321
0.5037953855451186
0.5037944495666052
0.503793201595254
0.5064511285995291
0.5064511285995291
0.5064511285995291
0.5064508022654101
0.5064508022654101
0.5064508022654101
0.5064508022654101
0.5064504759312909
0.5064504759312909
0.5064501495971718
0.5064501495971718
0.5064498232630527
0.5064498232630527
0.5064494969289336
0.5064494969289336
0.5064491705948145
0.5064491705948145
0.5064488442606954
0.5064485179265763
0.5064481915924572
0.5064481915924572
0.5064478652583381
0.506447538924219
0.5064472125900998
0.5064468862559808
0.5064462335877425
0.5064459072536235
0.5064455809195043
0.5064449282512662
0.506444601917147
0.5064439492489088
0.5064432965806707
0.5064429702465515
0.5064423175783133
0.506441338575956
0.5064406859077178
0.5064400332394796
0.5064390542371223
0.5064380752347649
0.5064370962324076
0.5064361172300503
0.506434811893574
0.5091963530484942
0.5091963530484942
0.5091963530484942
0.5091963530484942
0.5091960122808119
0.5091960122808119
0.5091960122808119
0.5091956715131295
0.5091956715131295
0.5091953307454472
0.5091953307454472
0.5091953307454472
0.5091949899777648
0.5091949899777648
0.5091946492100825
0.5091943084424001
0.5091943084424001
0.5091939676747178
0.5091936269070354
0.5091936269070354
0.5091932861393531
0.5091929453716707
0.5091926046039884
0.5091922638363061
0.5091919230686237
0.5091915823009414
0.5091909007655767
0.5091905599978943
0.509190219230212
0.5091895376948473
0.5091888561594826
0.5091885153918003
0.5091878338564356
0.5091871523210709
0.5091864707857062
0.5091854484826592
0.5091847669472945
0.5091837446442474
0.5091830631088827
0.5091820408058357
0.5091806777351063
0.5091796554320593
0.5120437327402503
0.5120437327402503
0.5120433775282129
0.5120433775282129
0.5120433775282129
0.5120430223161755
0.5120430223161755
0.5120430223161755
0.512042667104138
0.512042667104138
0.512042667104138
0.5120423118921007
0.5120423118921007
0.5120419566800634
0.5120419566800634
0.5120416014680259
0.5120412462559885
0.5120412462559885
0.5120408910439511
0.5120405358319138
0.5120401806198763
0.5120401806198763
0.512039825407839
0.5120394701958015
0.5120391149837642
0.5120384045596894
0.512038049347652
0.5120376941356146
0.5120369837115398
0.5120366284995024
0.5120359180754276
0.5120355628633902
0.5120348524393155
0.5120341420152407
0.5120334315911659
0.5120327211670911
0.5120316555309788
0.5120309451069041
0.5120298794707919
0.5120288138346797
0.5120277481985676
0.512026327350418
0.5149925185000946
0.5149925185000946
0.5149925185000946
0.5149921487463943
0.5149921487463943
0.5149921487463943
0.5149917789926941
0.5149917789926941
0.5149917789926941
0.5149914092389938
0.5149914092389938
0.5149914092389938
0.5149910394852935
0.5149910394852935
0.5149906697315931
0.5149902999778929
0.5149902999778929
0.5149899302241926
0.5149895604704923
0.5149895604704923
0.514989190716792
0.5149888209630917
0.5149884512093914
0.5149880814556911
0.5149877117019909
0.5149873419482905
0.5149869721945902
0.5149862326871897
0.5149858629334894
0.514985493179789
0.5149847536723885
0.5149840141649878
0.5149836444112876
0.514982904903887
0.5149821653964864
0.5149810561353855
0.5149803166279849
0.5149795771205844
0.5149784678594834
0.5149773585983826
0.5149762493372817
0.5149751400761808
0.518043073703013
0.518043073703013
0.518043073703013
0.518043073703013
0.5180426892600132
0.5180426892600132
0.5180426892600132
0.5180423048170135
0.5180423048170135
0.5180423048170135
0.5180419203740138
0.5180419203740138
0.518041535931014
0.518041535931014
0.5180411514880142
0.5180411514880142
0.5180407670450146
0.5180407670450146
0.5180403826020148
0.518039998159015
0.5180396137160153
0.5180392292730156
0.5180392292730156
0.5180388448300158
0.5180384603870161
0.5180376915010166
0.5180373070580169
0.5180369226150171
0.5180365381720174
0.5180357692860179
0.5180353848430181
0.5180346159570187
0.5180338470710193
0.5180330781850198
0.5180323092990203
0.5180315404130208
0.5180307715270214
0.5180300026410218
0.5180288493120226
0.5180276959830235
0.5180265426540243
0.5180253893250251
0.5211946550744377
0.5211942559379925
0.5211942559379925
0.5211942559379925
0.5211942559379925
0.5211938568015473
0.5211938568015473
0.5211938568015473
0.5211934576651021
0.5211934576651021
0.5211934576651021
0.5211930585286568
0.5211930585286568
0.5211926593922117
0.5211926593922117
0.5211922602557665
0.5211922602557665
0.5211918611193213
0.521191461982876
0.521191461982876
0.5211910628464308
0.5211906637099856
0.5211902645735403
0.5211898654370951
0.52118946630065
0.5211890671642048
0.5211886680277595
0.5211882688913143
0.5211878697548691
0.5211870714819786
0.5211866723455334
0.5211858740726429
0.5211850757997526
0.5211846766633074
0.5211838783904169
0.5211826809810812
0.5211818827081909
0.5211810844353004
0.5211798870259647
0.5211790887530743
0.5211778913437387
0.521176693934403
0.5244441520870295
0.5244441520870295
0.5244441520870295
0.5244437384018593
0.5244437384018593
0.5244437384018593
0.5244437384018593
0.524443324716689
0.524443324716689
0.524443324716689
0.5244429110315187
0.5244429110315187
0.5244424973463484
0.5244424973463484
0.5244424973463484
0.5244420836611782
0.5244416699760078
0.5244416699760078
0.5244412562908376
0.5244412562908376
0.5244408426056673
0.524440428920497
0.5244400152353267
0.5244396015501565
0.5244391878649861
0.5244387741798159
0.5244383604946455
0.5244379468094753
0.524437533124305
0.5244367057539644
0.5244362920687942
0.5244354646984536
0.5244350510132832
0.5244342236429427
0.5244333962726021
0.5244325689022615
0.524431741531921
0.5244309141615804
0.5244296731060696
0.524428845735729
0.5244276046802181
0.5244263636247073
0.527794179859384
0.527794179859384
0.527794179859384
0.527794179859384
0.5277937512478471
0.5277937512478471
0.5277937512478471
0.5277937512478471
0.5277933226363103
0.5277933226363103
0.5277933226363103
0.5277928940247734
0.5277928940247734
0.5277924654132364
0.5277924654132364
0.5277920368016996
0.5277920368016996
0.5277916081901627
0.5277916081901627
0.5277911795786258
0.5277907509670889
0.527790322355552
0.527790322355552
0.5277898937440151
0.5277894651324783
0.5277890365209413
0.5277886079094044
0.5277881792978676
0.5277877506863307
0.5277868934632569
0.52778646485172
0.5277856076286462
0.5277851790171093
0.5277843217940356
0.5277834645709617
0.527782607347888
0.5277817501248141
0.5277808929017404
0.5277800356786666
0.5277787498440559
0.5277774640094453
0.5277766067863715
0.5312427028657929
0.5312427028657929
0.5312427028657929
0.5312427028657929
0.5312422594399209
0.5312422594399209
0.5312422594399209
0.5312422594399209
0.531241816014049
0.531241816014049
0.531241816014049
0.5312413725881769
0.5312413725881769
0.5312409291623049
0.5312409291623049
0.531240485736433
0.531240485736433
0.531240042310561
0.531240042310561
0.531239598884689
0.5312391554588171
0.5312391554588171
0.531238712032945
0.531238268607073
0.5312378251812011
0.5312373817553291
0.5312369383294571
0.5312364949035852
0.5312360514777131
0.5312356080518411
0.5312351646259692
0.5312342777742253
0.5312338343483533
0.5312329474966093
0.5312320606448653
0.5312311737931213
0.5312302869413774
0.5312294000896334
0.5312285132378894
0.5312276263861455
0.5312262961085296
0.5312249658309136
0.5347887604309022
0.5347887604309022
0.5347887604309022
0.5347883021655151
0.5347883021655151
0.5347883021655151
0.5347883021655151
0.534787843900128
0.534787843900128
0.534787843900128
0.534787843900128
0.534787385634741
0.534787385634741
0.534786927369354
0.534786927369354
0.5347864691039669
0.5347864691039669
0.5347860108385798
0.5347860108385798
0.5347855525731927
0.5347855525731927
0.5347850943078056
0.5347846360424185
0.5347846360424185
0.5347841777770316
0.5347837195116445
0.5347832612462574
0.5347828029808703
0.5347823447154832
0.5347818864500962
0.5347809699193221
0.534780511653935
0.534780053388548
0.5347791368577738
0.5347782203269997
0.5347777620616126
0.5347768455308385
0.5347759290000643
0.5347750124692903
0.534773637673129
0.5347727211423549
0.5347713463461937
0.5384325522224948
0.5384325522224948
0.5384325522224948
0.5384320789413165
0.5384320789413165
0.5384320789413165
0.5384320789413165
0.5384316056601381
0.5384316056601381
0.5384316056601381
0.5384316056601381
0.5384311323789599
0.5384311323789599
0.5384311323789599
0.5384306590977816
0.5384306590977816
0.5384301858166034
0.5384301858166034
0.538429712535425
0.538429712535425
0.5384292392542468
0.5384287659730685
0.5384287659730685
0.5384282926918902
0.5384278194107119
0.5384273461295337
0.5384268728483553
0.5384268728483553
0.5384263995671771
0.5384254530048205
0.5384249797236422
0.538424506442464
0.5384240331612856
0.5384230865989291
0.5384226133177509
0.5384216667553943
0.5384207201930377
0.5384197736306812
0.5384188270683246
0.5384178805059681
0.5384169339436115
0.5384155141000766
0.542171726388598
0.542171726388598
0.542171726388598
0.542171726388598
0.542171726388598
0.5421712382457565
0.5421712382457565
0.5421712382457565
0.5421712382457565
0.5421707501029149
0.5421707501029149
0.5421707501029149
0.5421702619600735
0.5421702619600735
0.5421702619600735
0.5421697738172319
0.5421697738172319
0.5421692856743904
0.5421692856743904
0.5421687975315488
0.5421687975315488
0.5421683093887073
0.5421683093887073
0.5421678212458658
0.5421673331030242
0.5421668449601827
0.5421668449601827
0.5421663568173412
0.5421658686744997
0.5421653805316582
0.5421648923888166
0.5421639161031335
0.542163427960292
0.5421629398174505
0.5421619635317675
0.5421614753889259
0.5421604991032428
0.5421595228175599
0.5421590346747183
0.5421580583890352
0.5421565939605106
0.5421556176748276
0.5460088983519359
0.5460088983519359
0.5460088983519359
0.5460088983519359
0.5460083949181963
0.5460083949181963
0.5460083949181963
0.5460083949181963
0.5460083949181963
0.5460078914844566
0.5460078914844566
0.5460078914844566
0.5460078914844566
0.546007388050717
0.546007388050717
0.546007388050717
0.5460068846169774
0.5460068846169774
0.5460063811832379
0.5460063811832379
0.5460058777494982
0.5460058777494982
0.5460053743157586
0.546004870882019
0.546004870882019
0.5460043674482793
0.5460038640145397
0.5460033605808001
0.5460033605808001
0.5460028571470605
0.546002353713321
0.5460013468458417
0.5460008434121021
0.5460003399783625
0.5459998365446228
0.5459988296771436
0.545998326243404
0.5459973193759248
0.5459963125084455
0.5459958090747059
0.5459948022072267
0.5459932919060079
0.5499402527007409
0.5499402527007409
0.5499402527007409
0.5499397343259587
0.5499397343259587
0.5499397343259587
0.5499397343259587
0.5499397343259587
0.5499392159511763
0.5499392159511763
0.5499392159511763
0.5499392159511763
0.549938697576394
0.549938697576394
0.549938697576394
0.5499381792016118
0.5499381792016118