/*--------------------------------*- C++ -*----------------------------------*\
| =========                 |                                                 |
| \\      /  F ield         | OpenFOAM: The Open Source CFD Toolbox           |
|  \\    /   O peration     | Version:  v2012                                 |
|   \\  /    A nd           | Website:  www.openfoam.com                      |
|    \\/     M anipulation  |                                                 |
\*---------------------------------------------------------------------------*/
FoamFile
{
    version     2.0;
    format      ascii;
    class       volScalarField;
    location    "0";
    object      p;
}
// * * * * * * * * * * * * * * * * * * * * * * * * * * * * * * * * * * * * * //

dimensions      [1 -1 -2 0 0 0 0];


internalField   nonuniform List<scalar> 
8988
(
527.7803578124134
527.7803578124134
527.7803578124134
527.7803578124134
527.7803578124134
527.7803578124134
527.7803578124134
527.7803578124134
527.7803578124134
527.7803578124134
527.7803578124134
527.7803578124134
527.7803578124134
527.7803578124134
527.7803578124134
527.7803578124134
527.7803578124134
527.7803578124134
527.7803578124134
527.7803578124134
527.7803578124134
527.7803578124134
527.7803578124134
527.7803578124134
527.7803578124134
527.7803578124134
527.7803578124134
527.7803578124134
527.7803578124134
527.7803578124134
527.7803578124134
527.7803578124134
527.7803578124134
527.7803578124134
527.7803578124134
527.7803578124134
527.7803578124134
527.7803578124134
527.7803578124134
527.7803578124134
527.7803578124134
527.7803578124134
527.7386990501064
527.7386995106792
527.7386995106792
527.7386995106792
527.738699971252
527.738699971252
527.738699971252
527.7387004318248
527.7387004318248
527.7387008923976
527.7387008923976
527.7387013529703
527.7387013529703
527.7387018135431
527.7387018135431
527.7387022741159
527.7387027346887
527.7387031952616
527.7387036558343
527.7387036558343
527.7387041164071
527.7387045769799
527.7387054981255
527.7387059586982
527.738706419271
527.7387068798438
527.7387078009893
527.7387082615621
527.7387091827077
527.7387101038532
527.7387110249988
527.7387119461445
527.73871286729
527.7387137884356
527.7387151701539
527.7387160912995
527.7387174730178
527.7387188547361
527.7387202364546
527.7387220787457
527.738723460464
527.7387253027551
527.6558612989415
527.6558612989415
527.6558612989415
527.6558622194019
527.6558631398623
527.6558631398623
527.6558640603226
527.6558640603226
527.655864980783
527.6558659012434
527.6558668217037
527.6558677421641
527.6558677421641
527.6558686626245
527.6558705035452
527.6558714240056
527.6558723444659
527.6558732649263
527.655875105847
527.6558760263074
527.6558778672281
527.6558787876885
527.6558806286092
527.65588246953
527.6558843104507
527.6558870718318
527.6558889127525
527.6558907536732
527.6558935150543
527.6558962764354
527.6558990378165
527.655902719658
527.6559054810391
527.6559091628806
527.6559128447221
527.6559165265636
527.6559211288654
527.6559257311673
527.6559312539295
527.6559358562313
527.6559413789935
527.655947822216
527.5322254053759
527.5322267860575
527.5322267860575
527.5322281667391
527.5322295474207
527.5322309281022
527.5322323087838
527.5322336894654
527.5322336894654
527.5322364508286
527.5322378315102
527.5322392121917
527.5322405928733
527.5322433542365
527.5322447349181
527.5322474962812
527.5322488769629
527.532251638326
527.5322543996891
527.5322571610523
527.5322599224155
527.5322640644602
527.5322668258234
527.5322709678682
527.5322751099128
527.5322792519576
527.5322833940023
527.5322889167287
527.532294439455
527.5322999621814
527.5323054849076
527.5323123883155
527.5323192917234
527.5323261951314
527.5323344792208
527.5323427633103
527.5323510473999
527.5323607121709
527.5323717576235
527.5323828030762
527.5323938485288
527.5324062746631
527.3683704253907
527.3683722644329
527.368374103475
527.3683759425172
527.3683777815594
527.3683796206016
527.3683814596437
527.3683832986859
527.3683851377282
527.3683888158125
527.3683906548547
527.368394332939
527.3683961719812
527.3683998500655
527.3684035281499
527.3684072062342
527.3684108843187
527.368414562403
527.3684200795295
527.368425596656
527.3684292747404
527.3684347918669
527.3684421480357
527.3684476651622
527.3684550213309
527.3684623774997
527.3684697336683
527.368477089837
527.3684862850479
527.3684954802588
527.3685065145119
527.368517548765
527.368528583018
527.3685414563133
527.3685543296085
527.368569041946
527.3685837542833
527.368600305663
527.3686186960848
527.3686370865065
527.3686554769283
527.3686775454345
527.1647877266787
527.16479002313
527.1647923195811
527.1647946160324
527.1647969124837
527.1647992089349
527.1648038018374
527.1648060982886
527.1648083947398
527.1648129876423
527.1648175805448
527.1648221734473
527.1648267663497
527.1648313592523
527.1648359521547
527.1648428415084
527.164847434411
527.1648543237646
527.1648612131183
527.164868102472
527.1648749918257
527.1648841776307
527.1648933634357
527.1649025492407
527.1649140314968
527.1649232173017
527.1649369960091
527.1649484782654
527.1649622569728
527.1649760356802
527.1649921108389
527.1650081859975
527.1650265576075
527.1650449292174
527.1650633008272
527.1650862653397
527.1651092298521
527.1651321943644
527.1651597517792
527.1651873091942
527.1652171630602
527.1652493133776
526.9218857118726
526.9218884656451
526.9218912194177
526.9218939731902
526.9218967269628
526.9219022345079
526.9219049882804
526.9219104958255
526.9219160033706
526.9219215109157
526.9219270184608
526.9219325260059
526.921938033551
526.9219462948686
526.9219518024137
526.9219600637313
526.921968325049
526.9219793401392
526.9219876014567
526.921998616547
526.9220096316371
526.9220206467273
526.92203441559
526.9220454306802
526.9220619533154
526.9220757221782
526.9220922448135
526.9221115212213
526.9221280438566
526.9221500740368
526.9221693504446
526.9221941343976
526.9222189183505
526.9222437023034
526.9222712400289
526.9223015315268
526.9223345767973
526.9223676220679
526.9224061748835
526.9224447276991
526.9224860342872
526.922530094648
526.6396961500111
526.6396993652969
526.6397025805828
526.6397090111544
526.6397122264403
526.6397186570119
526.6397250875837
526.6397315181554
526.6397379487271
526.6397443792987
526.6397508098704
526.6397604557279
526.6397668862996
526.6397765321572
526.6397861780147
526.6397958238722
526.6398086850155
526.639818330873
526.6398311920165
526.6398472684457
526.639860129589
526.6398762060182
526.6398922824475
526.6399115741625
526.6399308658775
526.6399501575926
526.6399726645934
526.6399951715944
526.6400208938811
526.6400466161678
526.6400755537404
526.640104491313
526.6401366441713
526.6401720123156
526.6402105957457
526.6402491791758
526.6402909778917
526.6403359918935
526.640387436467
526.6404388810405
526.6404935408998
526.6405546313307
526.3190675027769
526.3190748461184
526.3190785177891
526.3190858611306
526.3190895328013
526.3190968761428
526.3191042194843
526.3191115628257
526.3191225778379
526.3191299211794
526.3191409361916
526.3191482795331
526.3191592945453
526.3191703095575
526.3191849962406
526.3191960112528
526.3192106979357
526.3192253846187
526.3192437429723
526.3192584296553
526.319276788009
526.3192988180334
526.3193208480578
526.3193428780822
526.3193649081066
526.3193906098019
526.3194199831678
526.3194493565337
526.3194787298996
526.3195154466069
526.3195521633144
526.3195888800217
526.3196292683998
526.3196733284487
526.3197210601683
526.3197724635587
526.3198275386197
526.3198862853516
526.3199450320834
526.3200111221566
526.3200845555714
526.3201579889862
525.9601883237775
525.9601924542379
525.9602007151586
525.9602089760793
525.960217237
525.9602254979208
525.9602337588415
525.9602420197622
525.9602544111433
525.960262672064
525.9602750634451
525.9602874548262
525.9602998462072
525.9603163680488
525.9603287594298
525.9603452812713
525.960365933573
525.9603824554146
525.9604031077164
525.9604237600181
525.9604485427803
525.9604691950822
525.9604981083047
525.9605270215272
525.9605559347497
525.9605848479722
525.9606220221156
525.9606591962588
525.960696370402
525.9607376750056
525.9607831100697
525.9608285451336
525.9608822411183
525.960935937103
525.9609937635481
525.9610557204535
525.9611218078193
525.9611961561058
525.9612705043924
525.9613531135996
525.9614398532672
525.9615348538555
525.5628755236668
525.562880119535
525.5628893112712
525.5628985030074
525.5629076947437
525.56291688648
525.5629306740843
525.5629398658207
525.562953653425
525.5629674410294
525.5629812286338
525.5629950162382
525.5630088038426
525.5630271873151
525.5630455707877
525.5630639542602
525.5630869336009
525.5631099129415
525.5631328922823
525.563160467491
525.5631880426998
525.5632156179087
525.5632477889856
525.5632799600625
525.5633167270075
525.5633534939526
525.5633948567659
525.5634408154472
525.5634867741285
525.563537328678
525.5635924790955
525.5636476295132
525.5637073757989
525.5637763138209
525.5638452518428
525.563918785733
525.5640015113594
525.5640842369858
525.5641761543485
525.5642772634474
525.5643829684144
525.5644932692496
525.1277913281222
525.1277913281222
525.1277913281222
525.127841909309
525.127841909309
525.127841909309
525.127841909309
525.127892490496
525.127892490496
525.127892490496
525.1279430716829
525.1279430716829
525.1279430716829
525.1279936528698
525.1279936528698
525.1280442340568
525.1280442340568
525.1280948152437
525.1280948152437
525.1281453964306
525.1281453964306
525.1281959776176
525.1282465588044
525.1282971399913
525.1282971399913
525.1283477211783
525.1283983023652
525.1284488835521
525.1284994647391
525.128550045926
525.1286512082999
525.1287017894867
525.1288029518606
525.1288535330475
525.1289546954214
525.1290052766083
525.1291064389821
525.1292076013559
525.1293087637298
525.1294605072906
525.1295616696644
525.1297134132252
524.6549373091178
524.6549373091178
524.6549373091178
524.6549373091178
524.6549925619829
524.6549925619829
524.6549925619829
524.6549925619829
524.6550478148479
524.6550478148479
524.6550478148479
524.655103067713
524.655103067713
524.655103067713
524.655158320578
524.655158320578
524.655213573443
524.655213573443
524.6552688263081
524.655324079173
524.655324079173
524.6553793320381
524.6554345849032
524.6554898377682
524.6555450906333
524.6556003434983
524.6556555963633
524.6557108492284
524.6557661020934
524.6558213549584
524.6558766078235
524.6559871135536
524.6560423664187
524.6561528721487
524.6562633778788
524.6563186307438
524.6564291364739
524.656594895069
524.6567054007991
524.6568159065291
524.6569816651242
524.6571474237194
524.1442559157383
524.1442559157383
524.1443158830226
524.1443158830226
524.1443158830226
524.1443158830226
524.144375850307
524.144375850307
524.144375850307
524.1444358175913
524.1444358175913
524.1444358175913
524.1444957848756
524.1444957848756
524.1445557521599
524.1445557521599
524.1446157194443
524.1446157194443
524.1446756867286
524.144735654013
524.144735654013
524.1447956212974
524.1448555885817
524.144915555866
524.1449755231503
524.1450354904347
524.145095457719
524.1451554250033
524.1452153922877
524.145275359572
524.1453952941406
524.145455261425
524.1455751959936
524.1456951305623
524.1457550978466
524.1458750324153
524.1460549342682
524.146174868837
524.1462948034057
524.1464747052586
524.1465946398273
524.1467745416803
523.5962643481477
523.5962643481477
523.5962643481477
523.5962643481477
523.5963290308162
523.5963290308162
523.5963290308162
523.5963290308162
523.5963937134846
523.5963937134846
523.5964583961531
523.5964583961531
523.5964583961531
523.5965230788216
523.5965230788216
523.5965877614902
523.5965877614902
523.5966524441587
523.5967171268272
523.5967171268272
523.5967818094957
523.5968464921642
523.5969111748327
523.5969758575012
523.5970405401697
523.5971052228382
523.5971699055068
523.5972345881753
523.5972992708438
523.5974286361808
523.5974933188493
523.5976226841863
523.5976873668548
523.5978167321919
523.5979460975288
523.5980754628658
523.5982048282028
523.5983988762084
523.5985282415454
523.5987222895509
523.5989163375565
523.599110385562
523.011132855392
523.011132855392
523.011132855392
523.011132855392
523.011202266008
523.011202266008
523.011202266008
523.011271676624
523.011271676624
523.011271676624
523.01134108724
523.01134108724
523.01134108724
523.011410497856
523.011410497856
523.011479908472
523.011549319088
523.011549319088
523.011618729704
523.0116881403198
523.0116881403198
523.0117575509358
523.0118269615518
523.0118963721678
523.0119657827838
523.0120351933998
523.0121046040158
523.0122434252478
523.0123128358638
523.0123822464798
523.0125210677118
523.0125904783278
523.0127292995597
523.0128681207916
523.0130069420236
523.0131457632556
523.0132845844876
523.0134928163355
523.0136316375675
523.0138398694154
523.0140481012634
523.0142563331113
522.3886720029287
522.3886720029287
522.3886720029287
522.3887462114233
522.3887462114233
522.3887462114233
522.3888204199179
522.3888204199179
522.3888204199179
522.3888946284125
522.3888946284125
522.388968836907
522.388968836907
522.388968836907
522.3890430454015
522.3891172538962
522.3891172538962
522.3891914623907
522.3892656708853
522.3892656708853
522.3893398793799
522.3894140878745
522.389488296369
522.3895625048635
522.3896367133582
522.3897109218527
522.3897851303473
522.3898593388419
522.390007755831
522.3900819643255
522.3902303813147
522.3903045898093
522.3904530067985
522.3906014237875
522.3907498407767
522.3908982577659
522.3911208832495
522.3912693002387
522.3914919257224
522.3917145512062
522.3919371766899
522.3921598021735
521.7286436085822
521.7286436085822
521.7286436085822
521.7286436085822
521.7287227012597
521.7287227012597
521.7287227012597
521.7288017939374
521.7288017939374
521.7288017939374
521.7288808866149
521.7288808866149
521.7289599792924
521.7289599792924
521.7290390719701
521.7290390719701
521.7291181646476
521.7291972573252
521.7291972573252
521.7292763500027
521.7293554426803
521.7294345353579
521.7295136280354
521.7295927207131
521.7296718133906
521.7297509060681
521.7298299987458
521.7299090914233
521.7300672767785
521.7301463694561
521.7303045548111
521.7303836474888
521.7305418328439
521.7307000181991
521.7308582035542
521.731095481587
521.731253666942
521.7314118522972
521.73164913033
521.7318864083627
521.7321236863954
521.7324400571057
521.0317573238855
521.0317573238855
521.0318412456443
521.0318412456443
521.0318412456443
521.0318412456443
521.031925167403
521.031925167403
521.031925167403
521.0320090891618
521.0320090891618
521.0320930109204
521.0320930109204
521.0321769326792
521.0321769326792
521.032260854438
521.032260854438
521.0323447761967
521.0324286979555
521.0325126197142
521.0325126197142
521.032596541473
521.0326804632318
521.0327643849905
521.0328483067493
521.0330161502668
521.0331000720255
521.0331839937843
521.0333518373018
521.0334357590606
521.0336036025781
521.0336875243369
521.0338553678544
521.0340232113718
521.0341910548893
521.0344428201656
521.0346106636831
521.0348624289594
521.0350302724769
521.0352820377532
521.0356177247882
521.0358694900644
520.297721982034
520.2978108267861
520.2978108267861
520.2978108267861
520.2978108267861
520.2978996715382
520.2978996715382
520.2978996715382
520.2979885162903
520.2979885162903
520.2980773610424
520.2980773610424
520.2981662057945
520.2981662057945
520.2982550505466
520.2982550505466
520.2983438952987
520.2984327400508
520.2984327400508
520.2985215848029
520.298610429555
520.2986992743071
520.2987881190592
520.2988769638113
520.2989658085634
520.2990546533155
520.2991434980676
520.2993211875718
520.2994100323239
520.2995877218281
520.2996765665802
520.2998542560844
520.3000319455886
520.3002096350928
520.300387324597
520.3005650141012
520.3008315483575
520.3010092378616
520.301275772118
520.3015423063742
520.3018088406305
520.3021642196389
519.5262054808771
519.5262054808771
519.5262993393322
519.5262993393322
519.5262993393322
519.5263931977873
519.5263931977873
519.5263931977873
519.5264870562426
519.5264870562426
519.5264870562426
519.5265809146977
519.5265809146977
519.5266747731528
519.5266747731528
519.5267686316079
519.5268624900631
519.5268624900631
519.5269563485182
519.5270502069733
519.5271440654284
519.5272379238836
519.5273317823387
519.5274256407938
519.5275194992489
519.527613357704
519.5277072161592
519.5278949330694
519.5279887915245
519.5281765084349
519.52827036689
519.5284580838003
519.5286458007105
519.5288335176207
519.529021234531
519.5292089514412
519.5294905268066
519.529772102172
519.5299598190823
519.5302413944477
519.5306168282682
519.5308984036336
518.7178749252383
518.7179737552366
518.7179737552366
518.7179737552366
518.7179737552366
518.7180725852348
518.7180725852348
518.7180725852348
518.7181714152331
518.7181714152331
518.7182702452313
518.7182702452313
518.7183690752296
518.7183690752296
518.7184679052278
518.7184679052278
518.7185667352261
518.7186655652243
518.7186655652243
518.7187643952225
518.7188632252207
518.718962055219
518.7190608852172
518.7191597152155
518.7192585452137
518.719357375212
518.7194562052102
518.7196538652067
518.719752695205
518.7199503552015
518.7200491851997
518.7202468451962
518.7204445051926
518.7206421651891
518.7208398251856
518.7211363151804
518.7213339751769
518.7216304651716
518.7219269551664
518.722223445161
518.7225199351558
518.7228164251505
517.87201600888
517.87201600888
517.87201600888
517.87201600888
517.8721199610634
517.8721199610634
517.8721199610634
517.8722239132468
517.8722239132468
517.8722239132468
517.8723278654302
517.8723278654302
517.8724318176136
517.8724318176136
517.872535769797
517.8726397219805
517.8726397219805
517.8727436741639
517.8728476263473
517.8728476263473
517.8729515785307
517.873055530714
517.8731594828974
517.8732634350808
517.8733673872642
517.8734713394476
517.8736792438144
517.8737831959978
517.8739911003647
517.8740950525481
517.8743029569149
517.8744069090983
517.8746148134651
517.8748227178319
517.8751345743821
517.875342478749
517.8755503831158
517.8758622396659
517.8761740962161
517.8764859527664
517.8767978093166
517.8772136180502
516.9889310501658
516.9889310501658
516.9889310501658
516.989040113394
516.989040113394
516.989040113394
516.989040113394
516.9891491766222
516.9891491766222
516.9892582398504
516.9892582398504
516.9893673030786
516.9893673030786
516.9894763663068
516.9894763663068
516.9895854295349
516.9895854295349
516.9896944927632
516.9898035559913
516.9899126192196
516.9899126192196
516.9900216824477
516.990130745676
516.9902398089041
516.9903488721324
516.9905669985887
516.9906760618169
516.9907851250451
516.9910032515015
516.9911123147298
516.9913304411862
516.9915485676426
516.9916576308707
516.9918757573271
516.9922029470117
516.9924210734681
516.9926391999245
516.992966389609
516.9932935792937
516.9936207689783
516.9939479586628
516.9943842115756
516.0685729397717
516.0685729397717
516.0685729397717
516.0685729397717
516.0686871848202
516.0686871848202
516.0686871848202
516.0688014298686
516.0688014298686
516.0689156749171
516.0689156749171
516.0689156749171
516.0690299199655
516.0690299199655
516.069144165014
516.0692584100624
516.0692584100624
516.0693726551109
516.0694869001594
516.0694869001594
516.0696011452078
516.0697153902563
516.0698296353047
516.0699438803532
516.0700581254017
516.0701723704501
516.070400860547
516.0705151055955
516.0706293506439
516.0708578407409
516.0710863308378
516.0712005758862
516.0714290659832
516.0716575560801
516.071886046177
516.0722287813225
516.0724572714194
516.0728000065648
516.0730284966617
516.073371231807
516.0738282120009
516.0741709471462
515.110890424104
515.110890424104
515.1110098954757
515.1110098954757
515.1110098954757
515.1111293668474
515.1111293668474
515.1111293668474
515.1112488382191
515.1112488382191
515.1112488382191
515.1113683095908
515.1113683095908
515.1114877809625
515.1114877809625
515.1116072523344
515.111726723706
515.111726723706
515.1118461950778
515.1119656664495
515.1120851378212
515.1120851378212
515.1122046091929
515.1123240805646
515.1124435519363
515.1126824946797
515.1128019660515
515.1129214374232
515.1131603801666
515.1132798515383
515.1135187942817
515.1136382656534
515.1138772083968
515.1141161511404
515.1143550938838
515.1145940366272
515.1149524507423
515.1151913934857
515.1155498076009
515.115908221716
515.1162666358312
515.1167445213181
514.1158322915369
514.1158322915369
514.1158322915369
514.1159570637166
514.1159570637166
514.1159570637166
514.1160818358961
514.1160818358961
514.1160818358961
514.1162066080758
514.1162066080758
514.1162066080758
514.1163313802555
514.1163313802555
514.116456152435
514.1165809246147
514.1165809246147
514.1167056967943
514.116830468974
514.116830468974
514.1169552411536
514.1170800133332
514.1172047855129
514.1173295576925
514.1174543298721
514.1175791020518
514.1177038742313
514.1179534185907
514.1180781907702
514.1182029629499
514.1184525073091
514.1187020516684
514.118826823848
514.1190763682073
514.1193259125666
514.1197002291054
514.1199497734648
514.120199317824
514.1205736343629
514.1209479509018
514.1213222674407
514.1216965839797
513.0829684099397
513.0829684099397
513.0829684099397
513.0829684099397
513.0830985755202
513.0830985755202
513.0830985755202
513.0832287411007
513.0832287411007
513.0832287411007
513.0833589066813
513.0833589066813
513.0834890722618
513.0834890722618
513.0836192378424
513.0836192378424
513.0837494034229
513.0837494034229
513.0838795690034
513.084009734584
513.0841399001646
513.084270065745
513.084270065745
513.0844002313256
513.0845303969062
513.0847907280672
513.0849208936478
513.0850510592284
513.0851812248088
513.08544155597
513.0855717215505
513.0858320527116
513.0860923838727
513.0863527150337
513.0866130461949
513.0868733773559
513.087133708517
513.0873940396781
513.0877845364197
513.0881750331613
513.088565529903
513.0889560266446
512.0122392695129
512.0123748735074
512.0123748735074
512.0123748735074
512.0123748735074
512.0125104775018
512.0125104775018
512.0125104775018
512.0126460814963
512.0126460814963
512.0126460814963
512.0127816854908
512.0127816854908
512.0129172894852
512.0129172894852
512.0130528934798
512.0130528934798
512.0131884974742
512.0133241014687
512.0133241014687
512.0134597054632
512.0135953094576
512.0137309134522
512.0138665174467
512.0140021214411
512.0141377254356
512.0142733294301
512.0144089334245
512.014544537419
512.014815745408
512.0149513494025
512.0152225573914
512.0154937653804
512.0156293693749
512.0159005773638
512.0163073893473
512.0165785973363
512.0168498053253
512.0172566173087
512.0175278252976
512.0179346372811
512.0183414492645
510.90439368596645
510.90439368596645
510.90439368596645
510.9045347229599
510.9045347229599
510.9045347229599
510.9045347229599
510.90467575995336
510.90467575995336
510.90467575995336
510.9048167969468
510.9048167969468
510.9049578339403
510.9049578339403
510.9049578339403
510.90509887093367
510.9052399079271
510.9052399079271
510.9053809449206
510.9053809449206
510.90552198191403
510.9056630189075
510.90580405590094
510.9059450928944
510.90608612988785
510.9062271668813
510.90636820387476
510.9065092408682
510.9066502778617
510.9069323518485
510.907073388842
510.9073554628289
510.90749649982234
510.90777857380925
510.90806064779616
510.908342721783
510.9086247957699
510.90890686975683
510.9093299807372
510.9096120547241
510.9100351657044
510.9104582766848
509.75823025667745
509.75823025667745
509.75823025667745
509.75823025667745
509.7583768999002
509.7583768999002
509.7583768999002
509.7583768999002
509.75852354312303
509.75852354312303
509.75852354312303
509.7586701863458
509.7586701863458
509.7588168295686
509.7588168295686
509.7589634727914
509.7589634727914
509.75911011601414
509.75911011601414
509.75925675923696
509.7594034024597
509.7595500456825
509.7595500456825
509.7596966889053
509.75984333212807
509.7599899753509
509.76013661857365
509.7602832617964
509.76042990501924
509.7607231914648
509.7608698346876
509.76116312113317
509.76130976435593
509.7616030508015
509.7618963372471
509.7621896236927
509.7624829101382
509.7627761965838
509.76306948302937
509.7635094126977
509.76394934236606
509.76424262881164
508.57413246816776
508.57413246816776
508.57413246816776
508.57413246816776
508.5742847245376
508.5742847245376
508.5742847245376
508.5742847245376
508.57443698090754
508.57443698090754
508.57443698090754
508.5745892372774
508.5745892372774
508.57474149364725
508.57474149364725
508.5748937500171
508.5748937500171
508.575046006387
508.575046006387
508.5751982627569
508.57535051912674
508.57535051912674
508.57550277549666
508.5756550318665
508.5758072882364
508.57595954460623
508.57611180097615
508.576264057346
508.57641631371587
508.5765685700857
508.57672082645564
508.57702533919536
508.5771775955652
508.577482108305
508.57778662104477
508.5780911337845
508.57839564652426
508.578700159264
508.57900467200375
508.57930918474347
508.5797659538531
508.58022272296273
507.3521214217114
507.3521214217114
507.3521214217114
507.3522793450826
507.3522793450826
507.3522793450826
507.3522793450826
507.3524372684538
507.3524372684538
507.3524372684538
507.3524372684538
507.352595191825
507.352595191825
507.35275311519626
507.35275311519626
507.35291103856747
507.35291103856747
507.3530689619387
507.3530689619387
507.3532268853099
507.3532268853099
507.3533848086811
507.3535427320523
507.3535427320523
507.35370065542355
507.35385857879476
507.35401650216596
507.35417442553717
507.3543323489084
507.3544902722796
507.35480611902204
507.35496404239325
507.35512196576445
507.35543781250686
507.35575365924933
507.35591158262054
507.35622742936295
507.3565432761054
507.3568591228478
507.35733289296144
507.3576487397039
507.3581225098175
506.0918204176659
506.0918204176659
506.0918204176659
506.09198411438024
506.09198411438024
506.09198411438024
506.09198411438024
506.09214781109466
506.09214781109466
506.09214781109466
506.09214781109466
506.09231150780903
506.09231150780903
506.09231150780903
506.0924752045234
506.0924752045234
506.09263890123776
506.09263890123776
506.0928025979522
506.0928025979522
506.09296629466655
506.093129991381
506.093129991381
506.09329368809534
506.0934573848097
506.0936210815241
506.0937847782385
506.0937847782385
506.09394847495287
506.09427586838166
506.094439565096
506.0946032618104
506.0947669585248
506.09509435195355
506.0952580486679
506.0955854420967
506.0959128355255
506.09624022895423
506.096567622383
506.0968950158118
506.09722240924054
506.0977134993837
504.79373930703997
504.79373930703997
504.79373930703997
504.79373930703997
504.79373930703997
504.7939087693259
504.7939087693259
504.7939087693259
504.7939087693259
504.79407823161193
504.79407823161193
504.79407823161193
504.7942476938979
504.7942476938979
504.7942476938979
504.7944171561839
504.7944171561839
504.7945866184699
504.7945866184699
504.79475608075586
504.79475608075586
504.79492554304187
504.79492554304187
504.7950950053278
504.79526446761383
504.7954339298998
504.7954339298998
504.7956033921858
504.79577285447175
504.79594231675776
504.7961117790437
504.7964507036157
504.7966201659017
504.79678962818764
504.7971285527596
504.7972980150456
504.7976369396176
504.79797586418954
504.7981453264755
504.79848425104746
504.7989926379054
504.7993315624774
503.4566669480463
503.4566669480463
503.4566669480463
503.4566669480463
503.45684237081707
503.45684237081707
503.45684237081707
503.45684237081707
503.45684237081707
503.45701779358785
503.45701779358785
503.45701779358785
503.45701779358785
503.4571932163587
503.4571932163587
503.4571932163587
503.45736863912947
503.45736863912947
503.45754406190025
503.45754406190025
503.45771948467103
503.45771948467103
503.45789490744187
503.45807033021265
503.45807033021265
503.45824575298343
503.4584211757542
503.45859659852505
503.45859659852505
503.45877202129583
503.4589474440666
503.4592982896082
503.459473712379
503.4596491351498
503.45982455792057
503.4601754034622
503.46035082623297
503.46070167177453
503.46105251731615
503.4612279400869
503.46157878562855
503.4621050539409
502.0816336491435
502.0816336491435
502.0816336491435
502.0818149562768
502.0818149562768
502.0818149562768
502.0818149562768
502.0818149562768
502.0819962634101
502.0819962634101
502.0819962634101
502.0819962634101
502.08217757054337
502.08217757054337
502.08217757054337
502.08235887767665
502.08235887767665
502.08235887767665
502.08254018480994
502.08254018480994
502.0827214919433
502.0827214919433
502.0829027990766
502.0829027990766
502.08308410620987
502.08326541334316
502.08326541334316
502.08344672047645
502.08362802760973
502.083809334743
502.0839906418763
502.0841719490096
502.0843532561429
502.0845345632762
502.08471587040947
502.0848971775428
502.0852597918094
502.0854410989427
502.08580371320926
502.08616632747584
502.0863476346091
502.0867102488757
500.668393997315
500.668393997315
500.668393997315
500.668393997315
500.668393997315
500.668393997315
500.668393997315
500.66858130541993
500.66858130541993
500.66858130541993
500.66858130541993
500.6687686135249
500.6687686135249
500.6687686135249
500.6687686135249
500.66895592162984
500.66895592162984
500.66895592162984
500.66914322973474
500.66914322973474
500.6693305378397
500.6693305378397
500.6693305378397
500.66951784594465
500.6697051540496
500.6697051540496
500.66989246215456
500.66989246215456
500.6700797702595
500.6702670783645
500.67045438646943
500.67064169457433
500.6708290026793
500.67101631078424
500.6712036188892
500.67139092699415
500.6715782350991
500.67195285130896
500.6721401594139
500.6725147756238
500.6727020837288
500.6730766999387
499.2162440487827
499.2162440487827
499.2162440487827
499.2162440487827
499.2162440487827
499.2162440487827
499.2164374624679
499.2164374624679
499.2164374624679
499.2164374624679
499.2164374624679
499.2166308761531
499.2166308761531
499.2166308761531
499.2166308761531
499.2168242898383
499.2168242898383
499.2168242898383
499.2168242898383
499.21701770352354
499.21701770352354
499.2172111172087
499.2172111172087
499.21740453089393