/*--------------------------------*- C++ -*----------------------------------*\
| =========                 |                                                 |
| \\      /  F ield         | OpenFOAM: The Open Source CFD Toolbox           |
|  \\    /   O peration     | Version:  2412                                  |
|   \\  /    A nd           | Website:  www.openfoam.com                      |
|    \\/     M anipulation  |                                                 |
\*---------------------------------------------------------------------------*/
FoamFile
{
    version     2.0;
    format      ascii;
    arch        "LSB;label=32;scalar=64";
    class       volScalarField;
    location    "0.013";
    object      ddt0(rhoN);
}
// * * * * * * * * * * * * * * * * * * * * * * * * * * * * * * * * * * * * * //

dimensions      [0 -3 -1 0 0 0 0];

internalField   nonuniform List<scalar> 
8988
(
1.58207e-62
2.38663e-62
3.30634e-62
5.77636e-62
4.68944e-62
8.86393e-63
1.55007e-62
5.1732e-62
5.95277e-62
5.57069e-62
5.85393e-62
6.27554e-62
7.65879e-62
8.13166e-62
8.41855e-62
8.52395e-62
8.71355e-62
8.6951e-62
8.37089e-62
7.83678e-62
7.12072e-62
6.24788e-62
5.26758e-62
4.24175e-62
3.22576e-62
2.26867e-62
1.39675e-62
6.33663e-63
2.95287e-65
-4.80276e-63
-8.08353e-63
-9.86859e-63
-1.03026e-62
-9.62842e-63
-8.14767e-63
-6.16993e-63
-3.99506e-63
-1.88838e-63
-5.64091e-65
1.36692e-63
2.30868e-63
2.72421e-63
-8.37297e-62
-8.08105e-63
8.9305e-62
-6.1994e-62
-1.16604e-61
1.18709e-61
3.71411e-62
-1.32066e-61
-6.91023e-62
2.59901e-62
4.96136e-62
1.40676e-62
-1.85287e-62
3.29369e-62
5.56058e-62
6.09987e-62
5.98373e-62
6.95714e-62
7.30704e-62
7.02774e-62
6.53564e-62
5.86521e-62
4.99589e-62
4.00318e-62
3.01021e-62
2.06206e-62
1.1827e-62
4.1655e-63
-2.08862e-63
-6.82893e-63
-9.99654e-63
-1.15832e-62
-1.17012e-62
-1.06093e-62
-8.66059e-63
-6.22493e-63
-3.67166e-63
-1.32867e-63
5.74296e-64
1.93469e-63
2.75821e-63
3.09684e-63
-6.71447e-61
-5.2762e-61
-3.58004e-61
-4.82336e-61
-8.49888e-61
-6.54109e-61
-2.85833e-61
-4.41498e-61
-7.04218e-61
-5.10211e-61
-3.15154e-61
-3.33254e-61
-3.10526e-61
-1.79326e-61
-7.95617e-62
-2.07239e-63
8.29039e-62
1.58099e-61
2.12634e-61
2.46947e-61
2.61627e-61
2.56394e-61
2.33301e-61
1.96495e-61
1.51106e-61
1.0236e-61
5.53078e-62
1.43147e-62
-1.75432e-62
-3.88033e-62
-4.94796e-62
-5.08339e-62
-4.50742e-62
-3.49418e-62
-2.31947e-62
-1.21401e-62
-3.36305e-63
2.39172e-63
5.20455e-63
5.81462e-63
5.32217e-63
4.81819e-63
-2.20568e-60
-1.93373e-60
-1.81602e-60
-1.78184e-60
-1.83644e-60
-2.04687e-60
-1.71963e-60
-1.36639e-60
-1.46248e-60
-1.4637e-60
-1.1439e-60
-9.33307e-61
-7.47141e-61
-4.76526e-61
-1.90596e-61
9.73193e-62
3.75956e-61
6.2373e-61
8.25676e-61
9.66688e-61
1.03568e-60
1.03008e-60
9.54872e-61
8.21684e-61
6.48223e-61
4.55821e-61
2.66279e-61
9.88521e-62
-3.23572e-62
-1.20011e-61
-1.63875e-61
-1.69895e-61
-1.48306e-61
-1.11174e-61
-6.99384e-62
-3.34425e-62
-6.8794e-63
8.28656e-63
1.36154e-62
1.25269e-62
9.02922e-63
6.62961e-63
-1.61806e-60
-1.31576e-60
-1.34097e-60
-5.72815e-61
-3.43793e-61
-6.26117e-61
-2.86155e-61
4.14738e-61
8.64553e-61
5.71268e-61
6.30453e-61
9.12945e-61
8.87918e-61
8.7684e-61
9.25593e-61
9.89679e-61
1.07615e-60
1.17593e-60
1.27648e-60
1.35879e-60
1.40001e-60
1.38313e-60
1.30028e-60
1.15294e-60
9.53136e-61
7.21867e-61
4.84846e-61
2.67576e-61
9.06746e-62
-3.37569e-62
-1.03799e-61
-1.2682e-61
-1.16493e-61
-8.87007e-62
-5.74618e-62
-3.20745e-62
-1.61976e-62
-8.87096e-63
-6.77332e-63
-6.60394e-63
-6.55605e-63
-6.37831e-63
1.39191e-59
1.39811e-59
1.3709e-59
1.47224e-59
1.65436e-59
1.67348e-59
1.56988e-59
1.6957e-59
1.81441e-59
1.72249e-59
1.57802e-59
1.46498e-59
1.27266e-59
1.0308e-59
7.67309e-60
4.80271e-60
2.07809e-60
-3.25633e-61
-2.36593e-60
-3.89816e-60
-4.82128e-60
-5.1497e-60
-4.94863e-60
-4.31693e-60
-3.38965e-60
-2.31719e-60
-1.2428e-60
-2.87581e-61
4.61582e-61
9.58924e-61
1.19909e-60
1.21141e-60
1.05081e-60
7.86032e-61
4.87037e-61
2.13797e-61
7.79027e-63
-1.1269e-61
-1.52685e-61
-1.36115e-61
-9.74952e-62
-7.1345e-62
5.70562e-59
5.68339e-59
5.62003e-59
5.54641e-59
5.47302e-59
5.33314e-59
5.33548e-59
5.44107e-59
5.27064e-59
5.00318e-59
4.80212e-59
4.43089e-59
3.8458e-59
3.11414e-59
2.24768e-59
1.30038e-59
3.13743e-60
-6.445e-60
-1.48952e-59
-2.15979e-59
-2.60725e-59
-2.80352e-59
-2.75074e-59
-2.47945e-59
-2.04206e-59
-1.50692e-59
-9.47831e-60
-4.32581e-60
-1.35935e-61
2.78335e-60
4.36267e-60
4.74722e-60
4.23641e-60
3.20297e-60
2.00934e-60
9.4031e-61
1.65266e-61
-2.66474e-61
-4.02646e-61
-3.49261e-61
-2.29571e-61
-1.50797e-61
4.65825e-59
4.92071e-59
4.09698e-59
3.74352e-59
2.58105e-59
9.68869e-60
-4.74143e-60
-3.33171e-60
-3.66798e-60
-1.37873e-59
-1.5314e-59
-1.03523e-59
-7.43649e-60
-5.73105e-60
-6.16612e-60
-7.05196e-60
-8.59761e-60
-1.30638e-59
-1.90136e-59
-2.44849e-59
-2.90878e-59
-3.22151e-59
-3.3103e-59
-3.1569e-59
-2.78701e-59
-2.25711e-59
-1.64829e-59
-1.04885e-59
-5.33644e-60
-1.51383e-60
8.19948e-61
1.81985e-60
1.85927e-60
1.39334e-60
8.23564e-61
4.04092e-61
2.15963e-61
2.06675e-61
2.67911e-61
3.1231e-61
3.14228e-61
3.00284e-61
-3.71656e-58
-3.92239e-58
-4.07075e-58
-4.39014e-58
-4.61533e-58
-4.81994e-58
-5.2474e-58
-5.63573e-58
-5.8251e-58
-5.84088e-58
-5.69835e-58
-5.33908e-58
-4.75664e-58
-3.97826e-58
-3.07151e-58
-2.09064e-58
-1.09602e-58
-1.71988e-59
6.17099e-59
1.22709e-58
1.62737e-58
1.80964e-58
1.79023e-58
1.60312e-58
1.29549e-58
9.21956e-59
5.3612e-59
1.84104e-59
-9.9795e-60
-2.95851e-59
-3.99433e-59
-4.19189e-59
-3.73708e-59
-2.87221e-59
-1.84969e-59
-8.89504e-60
-1.46646e-60
3.06693e-60
4.8165e-60
4.56363e-60
3.46282e-60
2.67065e-60
-1.68963e-57
-1.69028e-57
-1.68701e-57
-1.64524e-57
-1.59044e-57
-1.60961e-57
-1.69436e-57
-1.72314e-57
-1.70585e-57
-1.72526e-57
-1.73508e-57
-1.6544e-57
-1.49669e-57
-1.30102e-57
-1.04892e-57
-7.26426e-58
-3.78198e-58
-3.99688e-59
2.77706e-58
5.47788e-58
7.425e-58
8.51022e-58
8.72295e-58
8.13111e-58
6.90079e-58
5.26412e-58
3.47664e-58
1.78015e-58
3.67167e-59
-6.44306e-59
-1.21924e-58
-1.39829e-58
-1.27704e-58
-9.77396e-59
-6.1839e-59
-2.93121e-59
-5.63255e-60
7.64214e-60
1.2019e-59
1.07397e-59
7.46264e-60
5.28228e-60
-1.41533e-57
-1.50334e-57
-1.18688e-57
-9.66771e-58
-5.26361e-58
8.98092e-59
4.38925e-58
5.53188e-58
7.368e-58
9.3853e-58
8.84683e-58
6.91223e-58
5.55631e-58
4.06066e-58
2.01056e-58
9.41854e-59
9.02827e-59
1.34152e-58
2.36073e-58
3.85392e-58
5.38958e-58
6.64699e-58
7.40971e-58
7.52833e-58
7.00301e-58
5.96484e-58
4.61965e-58
3.21117e-58
1.96086e-58
1.01544e-58
4.25102e-59
1.49373e-59
8.63297e-60
1.16048e-59
1.41749e-59
1.1494e-59
3.78273e-60
-5.47908e-60
-1.23724e-59
-1.49619e-59
-1.41799e-59
-1.28113e-59
1.20036e-56
1.24604e-56
1.27975e-56
1.38612e-56
1.50126e-56
1.6378e-56
1.8155e-56
1.98403e-56
2.11644e-56
2.198e-56
2.19674e-56
2.11663e-56
1.94292e-56
1.67598e-56
1.353e-56
9.83175e-57
5.90248e-57
2.16856e-57
-1.11985e-57
-3.7904e-57
-5.66987e-57
-6.67047e-57
-6.85011e-57
-6.32951e-57
-5.27939e-57
-3.9125e-57
-2.44729e-57
-1.07526e-57
5.7768e-59
8.64002e-58
1.31709e-57
1.44544e-57
1.31848e-57
1.02863e-57
6.72261e-58
3.32656e-58
6.77531e-59
-9.58103e-59
-1.61842e-58
-1.57702e-58
-1.23199e-58
-9.76168e-59
5.25492e-56
5.2909e-56
5.2224e-56
5.01999e-56
4.82646e-56
4.87352e-56
5.18133e-56
5.34647e-56
5.48341e-56
5.74594e-56
5.85742e-56
5.78209e-56
5.48322e-56
4.93831e-56
4.16805e-56
3.16464e-56
2.01652e-56
8.29779e-57
-3.15411e-57
-1.31771e-56
-2.08618e-56
-2.56895e-56
-2.74743e-56
-2.63858e-56
-2.29489e-56
-1.79378e-56
-1.2239e-56
-6.70791e-57
-2.03353e-57
1.35331e-57
3.31457e-57
3.97926e-57
3.66707e-57
2.78444e-57
1.72119e-57
7.72505e-58
1.01212e-58
-2.57726e-58
-3.6188e-58
-3.13584e-58
-2.1799e-58
-1.57439e-58
2.98102e-56
3.61066e-56
3.19022e-56
1.20015e-56
-1.07004e-56
-2.92134e-56
-3.80291e-56
-5.13502e-56
-6.73372e-56
-7.11984e-56
-6.93556e-56
-6.4772e-56
-5.56174e-56
-4.36105e-56
-3.11504e-56
-1.95786e-56
-1.01713e-56
-3.73057e-57
-4.08889e-58
6.55051e-59
-1.49419e-57
-4.07194e-57
-6.74923e-57
-8.77805e-57
-9.73069e-57
-9.55768e-57
-8.5233e-57
-7.05508e-57
-5.59029e-57
-4.4412e-57
-3.71567e-57
-3.32293e-57
-3.05176e-57
-2.68452e-57
-2.09923e-57
-1.31829e-57
-4.86973e-58
2.04926e-58
6.19651e-58
7.3947e-58
6.71851e-58
5.86972e-58
-4.38749e-55
-4.35461e-55
-4.46964e-55
-4.74803e-55
-5.21904e-55
-5.8314e-55
-6.53626e-55
-7.29548e-55
-7.96616e-55
-8.45086e-55
-8.67123e-55
-8.53355e-55
-8.02251e-55
-7.14338e-55
-5.93632e-55
-4.50878e-55
-2.96759e-55
-1.42917e-55
-2.50572e-57
1.14106e-55
1.99978e-55
2.51241e-55
2.68122e-55
2.54732e-55
2.17973e-55
1.66441e-55
1.09197e-55
5.44764e-56
8.63905e-57
-2.44387e-56
-4.35187e-56
-4.97194e-56
-4.58822e-56
-3.57487e-56
-2.31239e-56
-1.11794e-56
-2.00617e-57
3.53579e-57
5.69222e-57
5.48875e-57
4.30578e-57
3.44777e-57
-1.67989e-54
-1.62204e-54
-1.57903e-54
-1.46392e-54
-1.39601e-54
-1.42247e-54
-1.4563e-54
-1.48501e-54
-1.5771e-54
-1.68397e-54
-1.75173e-54
-1.77957e-54
-1.74735e-54
-1.63126e-54
-1.4306e-54
-1.15234e-54
-8.1331e-55
-4.41169e-55
-6.89789e-56
2.68342e-55
5.40365e-55
7.25089e-55
8.11846e-55
8.03344e-55
7.14562e-55
5.69769e-55
3.97977e-55
2.27808e-55
8.26285e-56
-2.28627e-56
-8.39113e-56
-1.04775e-55
-9.59889e-56
-7.06949e-56
-4.1076e-56
-1.58268e-56
8.38942e-58
8.6953e-57
1.00419e-56
8.01645e-57
5.34324e-57
3.82505e-57
-2.38855e-55
-2.91717e-55
-6.96813e-56
6.00983e-55
1.42825e-54
2.17307e-54
2.79715e-54
3.5357e-54
4.24241e-54
4.56346e-54
4.64333e-54
4.48831e-54
4.06781e-54
3.44978e-54
2.70482e-54
1.91613e-54
1.16062e-54
5.04114e-55
-1.19424e-56
-3.6915e-55
-5.67918e-55
-6.31173e-55
-5.93153e-55
-4.89623e-55
-3.53696e-55
-2.12038e-55
-8.21492e-56
2.70157e-56
1.12058e-55
1.72305e-55
2.07739e-55
2.18428e-55
2.05311e-55
1.71507e-55
1.23302e-55
6.98701e-56
2.13757e-56
-1.3895e-56
-3.21918e-56
-3.55046e-56
-3.05814e-56
-2.58876e-56
1.61228e-53
1.59575e-53
1.61916e-53
1.68039e-53
1.81957e-53
2.04254e-53
2.31569e-53
2.60988e-53
2.90001e-53
3.13916e-53
3.27697e-53
3.28786e-53
3.15461e-53
2.86973e-53
2.45007e-53
1.92648e-53
1.33896e-53
7.37979e-54
1.73641e-54
-3.10113e-54
-6.78922e-54
-9.1356e-54
-1.01121e-53
-9.84483e-54
-8.58993e-54
-6.68904e-54
-4.51102e-54
-2.39665e-54
-6.12864e-55
6.77431e-55
1.42314e-54
1.67183e-54
1.54105e-54
1.18142e-54
7.40362e-55
3.3428e-55
3.35015e-56
-1.39185e-55
-1.99287e-55
-1.85555e-55
-1.4422e-55
-1.15968e-55
4.86931e-53
4.79932e-53
4.49926e-53
4.07124e-53
3.65767e-53
3.36267e-53
3.33914e-53
3.39733e-53
3.46165e-53
3.73547e-53
4.04561e-53
4.26295e-53
4.36959e-53
4.28377e-53
3.95448e-53
3.37959e-53
2.58615e-53
1.64264e-53
6.37255e-54
-3.28145e-54
-1.14895e-53
-1.74659e-53
-2.07645e-53
-2.13198e-53
-1.94614e-53
-1.5846e-53
-1.13144e-53
-6.71684e-54
-2.75908e-54
1.1121e-55
1.75148e-54
2.2936e-54
2.05395e-54
1.41488e-54
7.13276e-55
1.68199e-55
-1.38953e-55
-2.36668e-55
-2.08599e-55
-1.39284e-55
-8.20664e-56
-5.66102e-56
-3.35159e-53
-2.82215e-53
-3.9467e-53
-5.4734e-53
-8.33219e-53
-1.26954e-52
-1.5754e-52
-1.83625e-52
-2.18568e-52
-2.44284e-52
-2.51081e-52
-2.48438e-52
-2.32042e-52
-2.0406e-52
-1.67817e-52
-1.25467e-52
-8.21918e-53
-4.16433e-53
-6.48983e-54
2.09033e-53
3.95179e-53
4.94408e-53
5.16169e-53
4.76331e-53
3.94223e-53
2.89244e-53
1.7895e-53
7.74439e-54
-5.68467e-55
-6.5212e-54
-9.97412e-54
-1.11083e-53
-1.03483e-53
-8.27947e-54
-5.56013e-54
-2.8204e-54
-5.63023e-55
9.1701e-55
1.57316e-54
1.58983e-54
1.30308e-54
1.07586e-54
-5.82733e-52
-5.75085e-52
-5.76081e-52
-5.7557e-52
-6.06374e-52
-6.77854e-52
-7.72421e-52
-8.7501e-52
-9.808e-52
-1.07828e-51
-1.14584e-51
-1.16909e-51
-1.14023e-51
-1.05876e-51
-9.25229e-52
-7.46949e-52
-5.40691e-52
-3.23736e-52
-1.14212e-52
6.99097e-53
2.145e-52
3.10592e-52
3.55647e-52
3.53386e-52
3.12778e-52
2.4642e-52
1.68405e-52
9.19622e-53
2.74335e-53
-1.89363e-53
-4.53119e-53
-5.37269e-53
-4.88427e-53
-3.63921e-53
-2.17298e-53
-8.80716e-54
2.6471e-55
5.08905e-54
6.47589e-54
5.80722e-54
4.49849e-54
3.6668e-54
-1.37575e-51
-1.26714e-51
-1.12715e-51
-9.23743e-52
-7.45749e-52
-6.32522e-52
-4.58314e-52
-2.65597e-52
-2.52804e-52
-3.19577e-52
-3.38663e-52
-4.40866e-52
-5.6346e-52
-6.40677e-52
-6.87518e-52
-6.78544e-52
-5.9849e-52
-4.57329e-52
-2.74422e-52
-7.34331e-53
1.19381e-52
2.76877e-52
3.80267e-52
4.22535e-52
4.06991e-52
3.45649e-52
2.56958e-52
1.61932e-52
7.84879e-53
1.792e-53
-1.61526e-53
-2.7032e-53
-2.24929e-53
-1.14949e-53
-1.26447e-54
4.37832e-54
5.10683e-54
2.88868e-54
2.40956e-55
-1.22195e-54
-1.35018e-54
-1.02481e-54
2.63275e-51
2.31074e-51
2.38361e-51
3.33464e-51
4.65008e-51
5.65491e-51
6.82299e-51
8.55991e-51
1.02229e-50
1.11415e-50
1.17981e-50
1.1899e-50
1.13321e-50
1.01973e-50
8.56742e-51
6.63049e-51
4.53738e-51
2.4886e-51
6.50371e-52
-8.67792e-52
-1.96444e-51
-2.60734e-51
-2.82691e-51
-2.68772e-51
-2.28205e-51
-1.7195e-51
-1.10716e-51
-5.34216e-52
-6.51432e-53
2.64248e-52
4.46662e-52
4.98215e-52
4.50802e-52
3.43493e-52
2.14443e-52
9.46369e-53
4.0649e-54
-4.94335e-53
-6.88274e-53
-6.47319e-53
-5.12899e-53
-4.19e-53
2.07735e-50
1.97165e-50
1.88948e-50
1.89919e-50
1.94965e-50
2.08663e-50
2.38278e-50
2.67038e-50
2.96297e-50
3.34656e-50
3.61491e-50
3.73638e-50
3.72429e-50
3.53134e-50
3.15366e-50
2.61881e-50
1.96674e-50
1.25475e-50
5.47575e-51
-9.19354e-52
-6.07735e-51
-9.63261e-51
-1.14483e-50
-1.16044e-50
-1.03895e-50
-8.23994e-51
-5.6562e-51
-3.11017e-51
-9.70702e-52
5.43978e-52
1.37915e-51
1.61889e-51
1.43575e-51
1.03124e-51
5.82867e-52
2.10337e-52
-3.35987e-53
-1.51529e-52
-1.784e-52
-1.57963e-52
-1.26781e-52
-1.08519e-52
2.81589e-50
2.87009e-50
2.56301e-50
1.58807e-50
4.14993e-51
-5.7862e-51
-1.19559e-50
-2.18667e-50
-3.23301e-50
-3.54225e-50
-3.48269e-50
-3.25121e-50
-2.68723e-50
-1.93533e-50
-1.09856e-50
-3.02113e-51
2.8242e-51
6.73982e-51
8.7143e-51
8.41723e-51
6.56717e-51
3.98663e-51
1.25898e-51
-1.04368e-51
-2.57103e-51
-3.26223e-51
-3.26752e-51
-2.83222e-51
-2.23463e-51
-1.69869e-51
-1.3283e-51
-1.11255e-51
-9.70667e-52
-8.11331e-52
-5.83381e-52
-2.97344e-52
-1.28891e-53
1.9775e-52
2.89768e-52
2.69755e-52
1.93008e-52
1.36014e-52
-1.30194e-49
-1.3396e-49
-1.47986e-49
-1.54201e-49
-1.79758e-49
-2.32633e-49
-2.96461e-49
-3.54235e-49
-4.11911e-49
-4.66297e-49
-4.99902e-49
-5.08572e-49
-4.92991e-49
-4.52269e-49
-3.87041e-49
-3.05802e-49
-2.16928e-49
-1.25246e-49
-3.9863e-50
3.10652e-50
8.38466e-50
1.16707e-49
1.2933e-49
1.24335e-49
1.06165e-49
8.00304e-50
5.12169e-50
2.43572e-50
2.7536e-51
-1.18906e-50
-1.94045e-50
-2.08516e-50
-1.8042e-50
-1.29966e-50
-7.49969e-51
-2.81133e-51
4.30617e-52
2.14213e-51
2.62402e-51
2.36447e-51
1.87061e-51
1.55572e-51
-6.67607e-49
-6.51434e-49
-6.19716e-49
-5.76866e-49
-5.5021e-49
-5.5198e-49
-6.06719e-49
-6.94062e-49
-7.37733e-49
-8.23238e-49
-9.2372e-49
-9.87183e-49
-1.00877e-48
-9.8002e-49
-9.15009e-49
-7.90047e-49
-6.16868e-49
-4.25464e-49
-2.2246e-49
-2.8228e-50
1.33792e-49
2.5179e-49
3.1863e-49
3.33643e-49
3.05107e-49
2.45965e-49
1.7136e-49
9.63196e-50
3.29545e-50
-1.17466e-50
-3.61537e-50
-4.30304e-50
-3.789e-50
-2.69205e-50
-1.52537e-50
-6.03032e-51
-3.01987e-52
2.40268e-51
3.22717e-51
3.25381e-51
3.12955e-51
3.0715e-51
-3.26876e-49
-3.51798e-49
-1.33299e-49
3.05738e-50
4.87451e-49
1.0949e-48
1.67461e-48
2.13311e-48
2.58324e-48
3.04535e-48
3.21015e-48
3.12547e-48
2.90563e-48
2.50988e-48
1.94571e-48
1.36399e-48
7.84595e-49
2.4079e-49
-1.78941e-49
-4.66064e-49
-6.33394e-49
-6.78342e-49
-6.26138e-49
-5.12646e-49
-3.6689e-49
-2.16338e-49
-8.29427e-50
2.07384e-50
9.03318e-50
1.26774e-49
1.35009e-49
1.22299e-49
9.63767e-50
6.45684e-50
3.32146e-50
7.14244e-51
-1.07124e-50
-1.95235e-50
-2.05144e-50
-1.65112e-50
-1.11467e-50
-7.89258e-51
6.07968e-48
6.17714e-48
6.3655e-48
6.42083e-48
7.22098e-48
8.77732e-48
1.06668e-47
1.27373e-47
1.51388e-47
1.71387e-47
1.84241e-47
1.91229e-47
1.8817e-47
1.7505e-47
1.53082e-47
1.23377e-47
8.92537e-48
5.37108e-48
1.97671e-48
-9.45226e-49
-3.17399e-48
-4.59055e-48
-5.17604e-48
-5.02015e-48
-4.2952e-48
-3.22161e-48
-2.03124e-48
-9.26891e-49
-5.25504e-50
5.20839e-49
7.93081e-49
8.18781e-49
6.82573e-49
4.72982e-49
2.61943e-49
9.40191e-50
-1.42652e-50
-6.7648e-50
-8.21752e-50
-7.61755e-50
-6.46861e-50
-5.76275e-50
2.05434e-47
2.02368e-47
1.85808e-47
1.57697e-47
1.21679e-47
1.10622e-47
1.08421e-47
8.86595e-48
8.3611e-48
1.0533e-47
1.17168e-47
1.34157e-47
1.54212e-47
1.69303e-47
1.73069e-47
1.63705e-47
1.44591e-47
1.13774e-47
7.39884e-48
3.19363e-48
-7.41038e-49
-3.98107e-48
-6.18604e-48
-7.21058e-48
-7.11356e-48
-6.13297e-48
-4.61847e-48
-2.94313e-48
-1.42437e-48
-2.69845e-49
4.43651e-49
7.55167e-49
7.76626e-49
6.41113e-49
4.59849e-49
2.99359e-49
1.81292e-49
9.82661e-50
3.42662e-50
-2.03646e-50
-6.37751e-50
-8.61924e-50
-1.45678e-47
-1.0507e-47
-1.43916e-47
-2.93984e-47
-4.8409e-47
-6.44799e-47
-8.79963e-47
-1.17751e-46
-1.43187e-46
-1.62425e-46
-1.75091e-46
-1.77607e-46
-1.69332e-46
-1.51116e-46
-1.24979e-46
-9.35841e-47
-6.01647e-47
-2.8129e-47
-2.28135e-49
2.14802e-47
3.57978e-47
4.25576e-47
4.25304e-47
3.72082e-47
2.84891e-47
1.83573e-47
8.60399e-48
5.67008e-49
-5.00366e-48
-7.94707e-48
-8.58488e-48
-7.55063e-48
-5.59197e-48
-3.39381e-48
-1.45939e-48
-6.29846e-50
7.32857e-49
1.01813e-48
9.61189e-49
7.43701e-49
5.19289e-49
3.97508e-49
-2.63156e-46
-2.48413e-46
-2.37936e-46
-2.3869e-46
-2.49763e-46
-2.87869e-46
-3.34198e-46
-3.82911e-46
-4.49594e-46
-5.16766e-46
-5.57676e-46
-5.85554e-46
-5.8512e-46
-5.53474e-46
-4.92332e-46
-4.05598e-46
-3.00422e-46
-1.863e-46
-7.40291e-47
2.57681e-47
1.04048e-46
1.55327e-46
1.78123e-46
1.74617e-46
1.50395e-46
1.13265e-46
7.14933e-47
3.24733e-47
1.57956e-48
-1.85591e-47
-2.80061e-47
-2.88501e-47
-2.42068e-47
-1.72141e-47
-1.02967e-47
-4.83533e-48
-1.22914e-48
7.81571e-49
1.72335e-48
2.0919e-48
2.21356e-48
2.2436e-48
-5.47387e-46
-4.85487e-46
-4.60544e-46
-2.94079e-46
-1.3421e-46
-4.18237e-47
1.05534e-46
3.13799e-46
4.62089e-46
5.03831e-46
5.40624e-46
5.15562e-46
4.24144e-46
2.98131e-46
1.57737e-46
2.17548e-47
-9.15905e-47
-1.67312e-46
-1.99988e-46
-1.92447e-46
-1.52405e-46
-9.22722e-47
-2.61117e-47
3.40667e-47
7.95657e-47
1.05715e-46
1.12363e-46
1.02925e-46
8.28175e-47
5.79319e-47
3.32961e-47
1.23343e-47
-3.21313e-48
-1.29885e-47
-1.75634e-47
-1.79969e-47
-1.55214e-47
-1.1369e-47
-6.67433e-48
-2.39608e-48
7.34978e-49
2.20309e-48
1.3047e-45
1.39797e-45
1.59548e-45
1.71743e-45
2.1426e-45
2.9349e-45
3.83645e-45
4.81464e-45
5.85584e-45
6.68793e-45
7.24213e-45
7.44588e-45
7.20661e-45
6.55253e-45
5.53091e-45
4.23314e-45
2.80962e-45
1.38438e-45
8.92935e-47
-9.47811e-46
-1.65978e-45
-2.02519e-45
-2.05853e-45
-1.81797e-45
-1.39577e-45
-8.92724e-46
-4.02402e-46
1.77334e-48
2.77339e-46
4.15348e-46
4.34645e-46
3.71578e-46
2.67762e-46
1.59241e-46
6.9893e-47
9.83389e-48
-2.20085e-47
-3.30973e-47
-3.24865e-47
-2.75665e-47
-2.28718e-47
-2.05334e-47
9.3324e-45
8.71859e-45
7.76452e-45
7.74293e-45
7.97638e-45
7.661e-45
6.901e-45
8.07581e-45
9.54085e-45
1.01096e-44
1.08185e-44
1.16655e-44
1.19347e-44
1.16911e-44
1.07862e-44
9.21447e-45
7.12255e-45
4.62496e-45
1.98998e-45
-4.89506e-46
-2.57076e-45
-4.04897e-45
-4.8202e-45
-4.89707e-45
-4.38122e-45
-3.45405e-45
-2.33674e-45
-1.23692e-45
-3.14131e-46
3.40817e-46
7.10561e-46
8.35776e-46
7.88962e-46
6.48212e-46
4.77054e-46
3.15493e-46
1.81686e-46
7.9148e-47
4.6565e-48
-4.63271e-47
-7.73496e-47
-9.03624e-47
8.08276e-45
7.6657e-45
4.24983e-45
2.62596e-45
-3.53027e-45
-1.27703e-44
-2.21281e-44
-3.05138e-44
-3.90902e-44
-4.65571e-44
-5.05217e-44
-5.09686e-44
-4.77794e-44
-4.12446e-44
-3.22266e-44
-2.18081e-44
-1.127e-44
-1.73553e-45
5.91231e-45
1.09757e-44
1.32425e-44
1.30053e-44
1.07842e-44
7.27352e-45
3.29773e-45
-3.78504e-46
-3.19123e-45
-4.83408e-45
-5.27889e-45
-4.73484e-45
-3.55612e-45
-2.14038e-45
-8.31685e-46
1.46943e-46
7.11469e-46
8.9719e-46
8.14373e-46
5.95576e-46
3.52964e-46
1.56152e-46
3.20222e-47
-1.88135e-47
-7.84817e-44
-7.51753e-44
-7.33632e-44
-7.67608e-44
-8.69704e-44
-1.01346e-43
-1.2365e-43
-1.54789e-43
-1.78213e-43
-1.98705e-43
-2.17795e-43
-2.25125e-43
-2.18785e-43
-2.00421e-43
-1.70838e-43
-1.31294e-43
-8.59604e-44
-3.96223e-44
3.4315e-45
3.89593e-44
6.38434e-44
7.65826e-44
7.73867e-44
6.81525e-44
5.20122e-44
3.27187e-44
1.39163e-44
-1.5355e-45
-1.19896e-44
-1.71242e-44
-1.7737e-44
-1.52967e-44
-1.14214e-44
-7.44456e-45
-4.17882e-45
-1.90618e-45
-5.27011e-46
2.31006e-46
6.37842e-46
8.7207e-46
1.01317e-45
1.07631e-45
-2.77779e-43
-2.73199e-43
-2.44606e-43
-2.05307e-43
-1.39945e-43
-1.10162e-43
-8.36986e-44
-2.0977e-44
3.15488e-44
5.43353e-44
6.32517e-44
6.17111e-44
4.39959e-44
1.58668e-44
-1.52203e-44
-4.26174e-44
-6.02415e-44
-6.3981e-44
-5.41748e-44
-3.17391e-44
-8.39317e-46
3.19435e-44
6.15618e-44
8.40365e-44
9.55764e-44
9.49762e-44
8.3756e-44
6.48017e-44
4.18703e-44
1.89067e-44
-8.17899e-46
-1.51946e-44
-2.34563e-44
-2.59937e-44
-2.40081e-44
-1.91368e-44
-1.30606e-44
-7.17772e-45
-2.40794e-45
8.68322e-46
2.71718e-45
3.41528e-45
1.15399e-43
1.71202e-43
1.87774e-43
3.2096e-43
4.76755e-43
7.05847e-43
1.04565e-42
1.41228e-42
1.74755e-42
2.02958e-42
2.21712e-42
2.26885e-42
2.16811e-42
1.91917e-42
1.54631e-42
1.08828e-42
5.94962e-43
1.21758e-43
-2.81092e-43
-5.73282e-43
-7.31532e-43
-7.53243e-43
-6.5521e-43
-4.71818e-43
-2.48347e-43
-3.00344e-44
1.46229e-43
2.56993e-43
2.9619e-43
2.74188e-43
2.1205e-43
1.34432e-43
6.26618e-44
1.0042e-44
-1.93568e-44
-2.89081e-44
-2.59252e-44
-1.80068e-44
-1.05388e-44
-5.87986e-45
-3.95404e-45
-3.5597e-45
3.21083e-42
3.09151e-42
2.86146e-42
2.72897e-42
2.61278e-42
2.54179e-42
2.51608e-42
2.62404e-42
2.76656e-42
2.80065e-42
2.88377e-42
2.92845e-42
2.84655e-42
2.65082e-42
2.29981e-42
1.80097e-42
1.14921e-42
4.20864e-43
-2.9574e-43
-9.64537e-43
-1.49095e-42
-1.79182e-42
-1.85835e-42
-1.71063e-42
-1.38497e-42
-9.5283e-43
-4.96116e-43
-8.47165e-44
2.30347e-43
4.27838e-43
5.14397e-43
5.13243e-43
4.55348e-43
3.69865e-43
2.77692e-43
1.90877e-43
1.15227e-43
5.32621e-44
6.09798e-45
-2.62519e-44
-4.51133e-44
-5.25499e-44
5.22505e-42
5.31925e-42
5.01027e-42
3.27788e-42
9.76967e-43
-1.9753e-42
-4.95448e-42
-8.06161e-42
-1.21869e-41
-1.54484e-41
-1.69462e-41
-1.77009e-41
-1.71012e-41
-1.48814e-41
-1.16681e-41
-7.78037e-42
-3.68542e-42
2.22338e-44
2.94754e-42
4.71738e-42
5.19513e-42
4.52568e-42
2.98013e-42
9.25879e-43
-1.167e-42
-2.86007e-42
-3.85921e-42
-4.05355e-42
-3.52556e-42
-2.50444e-42
-1.28975e-42
-1.72662e-43
6.39342e-43
1.0614e-42
1.12415e-42
9.35849e-43
6.32414e-43
3.31372e-43
1.03956e-43
-2.9869e-44
-8.79792e-44
-1.02762e-43
-2.06063e-41
-1.97242e-41
-1.87088e-41
-1.92642e-41
-2.0805e-41
-2.31548e-41
-2.72702e-41
-3.23377e-41
-3.71516e-41
-4.11047e-41
-4.35287e-41
-4.41927e-41
-4.20596e-41
-3.71805e-41
-2.99482e-41
-2.02814e-41
-8.95957e-42
2.04583e-42
1.16333e-41
1.91365e-41
2.32409e-41
2.32838e-41
1.96764e-41
1.34315e-41
5.86051e-42
-1.5781e-42
-7.5493e-42
-1.11735e-41
-1.22441e-41
-1.11787e-41
-8.76626e-42
-5.90924e-42
-3.36322e-42
-1.55125e-42
-5.33793e-43
-1.19435e-43
-2.38908e-44
-8.39399e-45
4.9656e-44
1.63327e-43
2.84505e-43
3.53131e-43
-9.14073e-41
-8.93925e-41
-8.0542e-41
-6.61952e-41
-4.45221e-41
-1.25182e-41
2.22072e-41
5.81344e-41
9.63015e-41
1.35793e-40
1.60667e-40
1.71396e-40
1.69709e-40
1.53099e-40
1.24408e-40
8.85157e-41
5.07429e-41
1.64327e-41
-1.01565e-41
-2.61466e-41
-3.10584e-41
-2.62044e-41
-1.43142e-41
7.04828e-43
1.47209e-41
2.43891e-41
2.78358e-41
2.49348e-41
1.70005e-41
6.32799e-42
-4.40805e-42
-1.29359e-41
-1.79165e-41
-1.90756e-41
-1.70366e-41
-1.29931e-41
-8.28658e-42
-4.02988e-42
-8.79303e-43
1.0161e-42
1.89629e-42
2.15228e-42
6.3981e-41
4.11565e-41
3.929e-41
4.42307e-41
9.50989e-41
1.71292e-40
2.58599e-40
3.4549e-40
4.48541e-40
5.53391e-40
6.2538e-40
6.46833e-40
6.38167e-40
5.76782e-40
4.67754e-40
3.22352e-40
1.57745e-40
-4.92354e-42
-1.45794e-40
-2.41547e-40
-2.78531e-40
-2.56241e-40
-1.82829e-40
-7.58185e-41
3.99458e-41
1.39472e-40
2.03678e-40
2.23465e-40
2.01422e-40
1.49757e-40
8.58364e-41
2.67054e-41
-1.5724e-41
-3.70795e-41
-3.99375e-41
-3.11008e-41
-1.8209e-41
-7.02816e-42
-2.39818e-43
2.26611e-42
2.21372e-42
1.62849e-42
9.5364e-40
9.07434e-40
8.25034e-40
6.07279e-40
3.49266e-40
4.81918e-41
-4.44093e-40
-8.7195e-40
-1.24618e-39
-1.68445e-39
-2.03555e-39
-2.1491e-39
-2.10147e-39
-1.89434e-39
-1.55554e-39
-1.13194e-39
-6.93982e-40
-2.9695e-40
2.08786e-41
2.39413e-40
3.63564e-40
4.07575e-40
3.95628e-40
3.58617e-40
3.18881e-40
2.86865e-40
2.65086e-40
2.51201e-40
2.40211e-40
2.2751e-40
2.11184e-40
1.917e-40
1.70175e-40
1.46969e-40
1.21597e-40
9.37721e-41
6.4494e-41
3.63e-41
1.23586e-41
-5.00423e-42
-1.52463e-41
-1.92244e-41
4.91487e-40
4.37267e-40
4.27853e-40
-6.92004e-41
-9.47047e-40
-2.13518e-39
-4.02072e-39
-6.72354e-39
-8.75928e-39
-1.05084e-38
-1.22804e-38
-1.32955e-38
-1.30177e-38
-1.18758e-38
-9.86989e-39
-7.02662e-39
-3.8559e-39
-7.67362e-40
1.90569e-39
3.78352e-39
4.65346e-39
4.50503e-39
3.50065e-39
1.96155e-39
2.84346e-40
-1.15136e-39
-2.0651e-39
-2.33888e-39
-2.02773e-39
-1.32337e-39
-4.82927e-40
2.55505e-40
7.36823e-40
9.15019e-40
8.40008e-40
6.16688e-40
3.56419e-40
1.40252e-40
3.93757e-42
-5.68876e-41
-6.98343e-41
-6.66057e-41
-1.02868e-38
-9.22112e-39
-7.92826e-39
-5.09673e-39
-2.80903e-39
2.53563e-40
3.81025e-39
6.83916e-39
9.79832e-39
1.30589e-38
1.44456e-38
1.43176e-38
1.28043e-38
1.04765e-38
7.40818e-39
4.15404e-39
1.59808e-39
-3.2337e-40
-1.55362e-39
-2.33705e-39
-3.07546e-39
-3.98013e-39
-5.28076e-39
-6.89591e-39
-8.42626e-39
-9.46563e-39
-9.67604e-39
-8.88616e-39
-7.21668e-39
-5.03482e-39
-2.82639e-39
-1.02949e-39
1.04296e-40
5.57947e-40
5.07561e-40
2.18709e-40
-7.14313e-41
-2.30442e-40
-2.39624e-40
-1.54464e-40
-5.18379e-41
6.33389e-42
-9.3888e-39
-1.11116e-38
-7.66553e-39
2.94848e-39
2.0339e-38
5.31147e-38
8.49465e-38
1.17549e-37
1.63615e-37
2.06209e-37
2.26193e-37
2.37116e-37
2.31104e-37
2.06213e-37
1.65022e-37
1.10599e-37
5.45203e-38
6.01362e-40
-4.63302e-38
-7.80655e-38
-9.32409e-38
-9.32473e-38
-8.00822e-38
-5.86514e-38
-3.47277e-38
-1.3229e-38
2.19958e-39
9.99842e-39
1.07708e-38
6.62308e-39
3.22193e-40
-5.57675e-39
-9.39372e-39
-1.05668e-38
-9.4864e-39
-7.07897e-39
-4.34957e-39
-2.04353e-39
-5.04607e-40
2.8532e-40
5.60895e-40
6.01041e-40
1.41277e-37
1.19417e-37
1.00586e-37
9.37387e-38
9.204e-38
8.39008e-38
1.12025e-37
1.43544e-37
1.47196e-37
1.89263e-37
2.49617e-37
2.58361e-37
2.73894e-37
2.70708e-37
2.4263e-37
1.93013e-37
1.22934e-37
4.5857e-38
-2.75668e-38
-8.05636e-38
-1.03539e-37
-9.70434e-38
-5.94115e-38
-6.60522e-40
6.0921e-38
1.10099e-37
1.36507e-37
1.35125e-37
1.09199e-37
6.87074e-38
2.59619e-38
-8.41761e-39
-2.84134e-38
-3.35726e-38
-2.78933e-38
-1.72926e-38
-6.99635e-39
6.48867e-42
3.15435e-39
3.51252e-39
2.68312e-39
2.01136e-39
3.2795e-37
2.8955e-37
1.94223e-37
1.59585e-38
-3.20117e-37
-7.05233e-37
-1.08023e-36
-1.67574e-36
-2.2636e-36
-2.64186e-36
-2.89461e-36
-2.97011e-36
-2.73928e-36
-2.33196e-36
-1.68495e-36
-9.55158e-37
-2.31976e-37
4.87807e-37
1.02684e-36
1.34741e-36
1.49373e-36
1.4657e-36
1.29033e-36
1.03597e-36
7.55395e-37
4.95071e-37
2.87788e-37
1.44731e-37
6.25627e-38
2.85602e-38
2.52743e-38
3.61482e-38
4.88659e-38
5.63859e-38
5.62515e-38
4.93362e-38
3.8384e-38
2.65548e-38
1.63674e-38
9.14594e-39
5.01974e-39
3.4606e-39
-2.01834e-36
-1.55061e-36
-1.40822e-36
-1.7423e-36
-2.33456e-36
-3.04758e-36
-4.28931e-36
-5.90327e-36
-7.32636e-36
-8.41499e-36
-9.65066e-36
-1.02262e-35
-9.78268e-36
-8.65953e-36
-6.9014e-36
-4.48882e-36
-1.84353e-36
7.03562e-37
2.87703e-36
4.30765e-36
4.92998e-36
4.69417e-36
3.71547e-36
2.31252e-36
8.39541e-37
-4.09229e-37
-1.2069e-36
-1.47045e-36
-1.27256e-36
-7.87817e-37
-2.27303e-37
2.31145e-37
4.90357e-37
5.43176e-37
4.4895e-37
2.92321e-37
1.44759e-37
4.40565e-38
-5.43134e-39
-1.92078e-38
-1.69573e-38
-1.30396e-38
-8.36972e-36
-7.53563e-36
-5.85972e-36
-3.4463e-36
-6.40231e-37
4.45445e-36
8.45649e-36
1.02397e-35
1.36575e-35
1.97533e-35
2.01914e-35
1.70105e-35
1.51392e-35
1.05308e-35
4.35832e-36
-1.15552e-36
-6.41867e-36
-1.0857e-35
-1.34736e-35
-1.4644e-35
-1.47316e-35
-1.39e-35
-1.25408e-35
-1.09809e-35
-9.37613e-36
-7.77355e-36
-6.15939e-36
-4.54327e-36
-2.98689e-36
-1.60513e-36
-5.32341e-37
1.4131e-37
4.13698e-37
3.74245e-37
1.68503e-37
-6.02167e-38
-2.18772e-37
-2.804e-37
-2.68942e-37
-2.26711e-37
-1.87737e-37
-1.6888e-37
1.19083e-35
1.43891e-35
1.78906e-35
2.24052e-35
3.38566e-35
5.37167e-35
8.04113e-35
1.06861e-34
1.33499e-34
1.5713e-34
1.679e-34
1.66695e-34
1.52695e-34
1.24022e-34
8.39918e-35
3.70691e-35
-1.06104e-35
-5.33519e-35
-8.62238e-35
-1.05541e-34
-1.10109e-34
-1.00829e-34
-8.09331e-35
-5.54985e-35
-2.9897e-35
-8.51357e-36
5.82789e-36
1.23182e-35
1.21373e-35
7.78639e-36
2.09374e-36
-2.68068e-36
-5.36076e-36
-5.88545e-36
-4.94499e-36
-3.45356e-36
-2.11581e-36
-1.24089e-36
-8.00502e-37
-6.17144e-37
-5.38344e-37
-5.05031e-37
1.5085e-34
1.4935e-34
1.23191e-34
1.07974e-34
8.433e-35
8.1088e-35
9.00892e-35
6.11843e-35
7.74932e-35
1.22979e-34
1.12677e-34
1.2298e-34
1.50545e-34
1.41654e-34
1.36344e-34
1.21504e-34
8.78495e-35
5.68425e-35
2.79899e-35
3.91898e-36
-5.62805e-36
9.09565e-37
2.05169e-35
4.79014e-35
7.46948e-35
9.27456e-35
9.71375e-35
8.68355e-35
6.50617e-35
3.82679e-35
1.35499e-35
-3.8939e-36
-1.2199e-35
-1.27829e-35
-8.99014e-36
-4.26275e-36
-7.76716e-37
9.31979e-37
1.43852e-36
1.55551e-36
1.7121e-36
1.86288e-36
-5.31045e-36
1.06027e-34
5.69547e-35
-8.18531e-35
-3.16686e-34
-6.39115e-34
-9.04452e-34
-1.18416e-33
-1.49114e-33
-1.6503e-33
-1.66052e-33
-1.57656e-33
-1.26506e-33
-8.11378e-34
-2.9898e-34
2.54562e-34
7.93216e-34
1.22518e-33
1.50346e-33
1.62259e-33
1.57898e-33
1.39439e-33
1.11494e-33
7.93693e-34
4.8426e-34
2.31492e-34
5.88242e-35
-3.13593e-35
-5.30927e-35
-3.16417e-35
5.58153e-36
3.78512e-35
5.49172e-35
5.63156e-35
4.77804e-35
3.64905e-35
2.74137e-35
2.21285e-35
1.96876e-35
1.84027e-35
1.73387e-35
1.66603e-35
-2.24284e-33
-1.97422e-33
-1.77662e-33
-1.72806e-33
-2.07635e-33
-2.17563e-33
-2.68431e-33
-3.99169e-33
-4.8478e-33
-3.68799e-33
-3.93486e-33
-4.67342e-33
-3.35043e-33
-2.16731e-33
-1.13066e-33
2.40316e-34
1.63815e-33
2.76424e-33
3.38781e-33
3.56135e-33
3.30581e-33
2.61273e-33
1.62407e-33
5.43124e-34
-4.37976e-34
-1.14776e-33
-1.48766e-33
-1.46114e-33
-1.1556e-33
-7.14367e-34
-2.87478e-34
1.95757e-35
1.7116e-34
1.95012e-34
1.51801e-34
9.88546e-35
6.65597e-35
5.56627e-35
5.125e-35
4.07925e-35
2.43843e-35