/*--------------------------------*- C++ -*----------------------------------*\
| =========                 |                                                 |
| \\      /  F ield         | OpenFOAM: The Open Source CFD Toolbox           |
|  \\    /   O peration     | Version:  2412                                  |
|   \\  /    A nd           | Website:  www.openfoam.com                      |
|    \\/     M anipulation  |                                                 |
\*---------------------------------------------------------------------------*/
FoamFile
{
    version     2.0;
    format      ascii;
    arch        "LSB;label=32;scalar=64";
    class       volScalarField;
    location    "0.013";
    object      ddt0(rho,e);
}
// * * * * * * * * * * * * * * * * * * * * * * * * * * * * * * * * * * * * * //

dimensions      [1 -1 -3 0 0 0 0];

internalField   nonuniform List<scalar> 
8988
(
10780.9
6606.07
4840.16
-19745.6
-20998
49634.1
18509.9
-20025.7
-14150.9
-4089.09
1006.2
5211.77
3122.19
133.848
697.889
2165.64
1611.21
921.811
797.773
762.959
641.134
548.427
552.177
567.116
722.202
656.145
553.207
582.768
522.583
307.379
139.516
-63.6022
-205.868
-277.345
-308.069
-349.21
-438.558
-557.482
-680.392
-789.821
-879.1
-936.388
47777.8
-3393
-72556.4
42712.8
59183.2
-92825.5
-12350
30225.7
64267.2
-2391.39
-40074.2
-6690.36
27431.4
4342.46
1293.18
-1768.57
2553.16
2480.29
2705.67
911.497
961.139
1088.72
761.202
974.587
1082.36
902.83
821.23
726.965
639.372
421.2
84.8246
-250.518
-464.853
-565.979
-716.581
-904.505
-1110.96
-1301.23
-1449.91
-1566.75
-1657.03
-1746.44
71044.9
-18048.4
-113182
-53364.8
205121
54552.5
-179116
-32064.6
122403
11814.1
-54146.6
-10918.7
33295.6
3161.32
-411.651
3345.06
4622.82
2263.6
1498.83
2484.5
2552.77
2319.39
2243.63
2247.44
2084.21
1779.42
1532.18
1410.32
1281.23
967.519
467.977
-28.239
-352.733
-560.493
-812.232
-1146.62
-1508.7
-1804.86
-2013.9
-2199.06
-2374.55
-2537.39
142344
-40653.9
-97713.1
-63059
-4264.33
146010
26126.3
-107050
-14939.3
73621.1
-17755.6
-11939.5
8246.13
1510.23
1353.05
1261.46
1196.2
1747
2419.38
2166.96
2247.83
2516.22
2366.78
2049.5
1787.05
1589.03
1537.38
1501.43
1363.4
1193.32
923.239
584.121
260.403
-47.8801
-456.873
-994.1
-1555.88
-2012.82
-2206.85
-2478.54
-2746.75
-2987.05
70434.9
2256.78
35345.9
-123732
-81576.3
117865
55950.8
-47794.6
-56815.5
29447.2
34938.7
-12859.3
-6222.04
2295.15
1018.26
145.82
535.194
1486.45
1785.17
1647.68
1700.83
1939.33
1843.97
1659.2
1453.37
1369.36
1425.53
1384.74
1176.79
978.913
892.802
864.066
765.645
511.438
72.0885
-522.748
-1139.45
-1637.31
-2047.21
-2535.86
-2833.52
-3061.27
-18118.5
6962.35
97493.2
12270.6
-187804
-79715
221408
46746.6
-122929
-28266.5
57462.7
-2726.45
-4711.57
-3952.11
-6402.4
4269.62
7339.73
-1236.57
-2927.91
665.753
2195.67
1113.01
798.381
983.824
1018.21
884.976
994.745
1111.39
955.703
759.886
784.94
953.329
1012.45
850.294
532.381
121.92
-352.782
-830.316
-1293.01
-1752.18
-2237.14
-2575.68
-103298
10874.2
78048.6
71653
10556.6
-148925
-31103.1
135679
14919.2
-52993.2
-12171.1
17540.1
6128.35
823.338
-20464.9
-4564.02
12286.5
1617.43
-3006.62
-1554.84
1028.06
592.86
-313.63
-27.2103
373.84
254.799
219.129
400.252
452.378
414.942
540.094
755.873
846.305
775.774
650.106
521.917
350.192
114.046
-177.251
-524.414
-953.347
-1263.31
-81466.9
13386.3
-443.894
99512.9
48560
-44552.1
-104790
24429.6
78237.6
-19228.1
-33266.8
410.544
13318.3
6124.47
-15081.9
-15593.9
5470.73
10379.7
-3928.74
-7371.86
-1164.68
1263.66
-1475
-1434.7
-489.431
-467.171
-669.285
-524.91
-241.631
-83.5864
84.9326
275.576
382.412
438.753
534.882
685.02
844.21
977.658
1051.69
1022.48
892.6
729.717
84734.7
-8422.95
-38355.6
-91835.1
-40572.1
112120
46677.1
-56589.1
-36862.1
17900.4
3893.52
-12093.7
-4554.13
8114.88
-2300.49
-18031.4
-1554.57
8262.45
-3746.24
-6746.7
-2827.76
486.825
-2459.61
-2631.74
-1532.87
-1276.28
-1597.39
-1484.79
-1079.39
-775.183
-567.297
-335.015
-100.548
162.023
490.794
876.825
1308.8
1776.64
2237.72
2618.52
2892.67
2986.33
-36469.8
5193.11
82368.6
22147.1
-119651
-47947.4
82187.1
35019
-42427.8
-24045.4
18487.5
3545.34
-24575.2
-3021.17
8199.17
-7907.29
-12647.7
-1688.08
2502.8
-4953.52
-5971.05
-3441.78
-1637.61
-3655.12
-3374.93
-2263.3
-2377.67
-2408.16
-2059.17
-1619.8
-1269.27
-910.682
-484.006
14.9918
580.324
1201.97
1886.26
2628.34
3397.7
4119.34
4716.03
5021.32
-67531.4
16119.9
-581.904
70074.9
40416.4
-78080.2
-57402.5
34098.7
29922.5
-29701.3
-15467.9
12541.3
-2819.27
-20213
3233.66
5167.88
-18797.1
-9837.14
1587.77
-1276.15
-6983.77
-6076.14
-3130.47
-3744.4
-4497.58
-3565.14
-2830.98
-3090.15
-2856.18
-2309.93
-1765.28
-1242.75
-627.586
79.6035
858.15
1699.96
2597.54
3526.31
4461.39
5343.29
6060.61
6468.61
61964.8
-30110.8
-1429.76
-69109.7
-47896.2
57726.6
33041.7
-53473.8
-15687.5
14275.8
-22856.4
582.434
3855.22
-24806.1
-1362.14
4030.28
-18511.6
-8236.08
1045.07
-4035.7
-8637.73
-6068.27
-3365.53
-4759.98
-5334.89
-4433.13
-3390.99
-3465.85
-3280.21
-2671.67
-1970.24
-1272.13
-485.135
371.451
1296.41
2279.2
3293.41
4300.98
5269.19
6147.56
6832.4
7263.57
-72469.2
8326.26
74497.7
24222.9
-93604.9
-61847.6
55220.4
12363.2
-35928.2
-5210.95
-6012.15
-5927.45
-11244.7
-9764.56
-1980.64
-7249.89
-10156.7
-5114.79
-4650.23
-7969.89
-6054.63
-4543.29
-5447.03
-5900.2
-5202.81
-4490.57
-4299.1
-3876.23
-3038.3
-2452.96
-1913.35
-1117.54
-153.53
827.469
1770.22
2770.76
3792.26
4789.3
5732.58
6584.8
7140.86
7507.69
-142299
36413.4
142053
23513.8
-114203
-114951
59321
93022
-61545.8
-28253.9
12312.1
-12016.3
-14717
-3413.01
-6674.24
-11172.3
-6614.66
-6019.65
-7927.8
-6275.27
-5293.83
-6047.46
-6380.74
-5594.72
-4878.41
-4757.95
-4378.55
-3628.1
-2962.39
-2330.67
-1564.98
-688.26
239.965
1184.6
2138.16
3084.82
4035.29
4994.43
5879.93
6580.68
7094.97
7404.55
-72980.6
-3742.14
30474.4
49174.1
11210.7
-73813.2
-6708.83
39760.5
-30749.2
-14879.2
3734.6
-16650.2
-5237.33
-1951.34
-14033.6
-8067.4
-4784.05
-8387.79
-6982.24
-5573.13
-5989.46
-6430.28
-5913.25
-4964.2
-4882.77
-4641.22
-3891.47
-3205.26
-2620.49
-1952.03
-1186.58
-339.494
545.306
1423.28
2298.2
3172.55
4029.98
4861.21
5624.03
6252.86
6733.05
7118.24
-1230.62
-5686.71
75472
-62557.5
-91492
32601.4
63815
-46116.8
-26689.6
10952.2
-9192.05
-12551.5
-2416.08
-9805.76
-10307.7
-5220.81
-7438
-7656.43
-5517.21
-5386.85
-6322.58
-6134.29
-5021.47
-4881.89
-4755.93
-3982.27
-3299.64
-2900.03
-2401.38
-1705.12
-896.759
-41.4672
772.061
1525.08
2275.71
3042.27
3789.24
4498
5144.9
5702.42
6132.74
6545.89
-106732
35746.9
123673
15525.8
-118941
-76920.6
63726.8
49629
-45241.8
-12658.5
567.18
-6027.82
-5899.97
-9811.7
-5173.7
-5756.04
-7693.45
-5267.7
-4865.27
-5537.5
-5346.01
-4952.06
-4826.97
-4917.76
-4280.09
-3489.18
-3014.35
-2570.65
-2063.26
-1540.6
-847.926
-4.6216
772.341
1428.96
2063.39
2732
3400.4
4019.82
4552.86
5008.28
5372.83
5742.63
-17378
21162
-58692.2
26492.6
71541.7
-26050.4
-55083.6
8616.09
13284.2
-14746.3
-6682.51
-1295.24
-7696.02
-4397.55
-4051.57
-7356.9
-4572.53
-3670.87
-4863.15
-4223.5
-3942.35
-4334.43
-4952.04
-4527.95
-3585.72
-3262.03
-3043.86
-2386.19
-1723.16
-1256.79
-701.118
-28.3663
591.013
1151.19
1716.55
2299.66
2878.73
3413.08
3857.77
4230.85
4539.37
4818.22
-114446
18625.1
99034.7
45837.3
-60977.2
-70419.6
23052.7
55653.6
-31593.2
-13521.6
5842.2
-6468.12
-5036.37
-2334.19
-7015.37
-4801.65
-2444.24
-4201.93
-3613.91
-2938.93
-3515.28
-4069.92
-4183.8
-3264.59
-2752.86
-2773.62
-2464.44
-1843.2
-1410.66
-1093.52
-668.723
-222.192
213.499
743.085
1325.7
1845.03
2301.62
2734.69
3120.98
3442.88
3693.88
3853.99
-148628
23044.7
51358.7
143798
62045.7
-192527
-47174.5
105072
-2503.4
-31205.2
6910.5
-4726.18
136.233
-1723.74
-8446.24
-2849.5
-2538.72
-4153.33
-1969.72
-2029.29
-3429.08
-3622.64
-2790.36
-2397.09
-2801.48
-2638.62
-1776.55
-1177.22
-993.147
-828.202
-603.116
-408.201
-126.019
352.569
892.313
1329.35
1693.94
2074.8
2440.01
2696.57
2823.66
2830.12
38045.9
-23450.9
-83272.3
29676.5
139355
45341
-138298
-35125.5
76631.8
-9692.79
-18496.6
-4168.11
4886.25
-5645.05
-8672.44
-2221.12
-1905.6
-1907.95
-1598.52
-1790.03
-1199.38
-937.328
-1265.97
-2475.44
-2711.76
-1541.07
-762.968
-893.697
-1077.68
-909.838
-710.467
-561.343
-290.151
110.33
501.599
810.76
1102.43
1451.16
1795.3
1974.93
1945.51
1794.46
52502.2
-676.378
-28936.6
-109142
-18694.1
111976
28807.1
-78414.7
-17486.4
31697.4
-14317.9
-3474.25
5539
-7370.64
-5038.29
-70.1997
1725.24
-120.455
-3170.17
-334.579
1077.94
1145.82
-666.286
-3403.38
-2100.78
-171.374
-122.502
-883.881
-1103.03
-914.983
-774.944
-639.47
-431.622
-187.817
81.8708
373.367
661.421
925.398
1136.29
1208.21
1104.42
922.292
-120323
67943.5
157894
6928.71
-197271
-43012
125282
7669.03
-57605.3
13789
2065.62
-3306.62
-3239.89
-2786.36
1258.9
-266.787
3020.48
1138.64
-2882.55
1342.38
2066.86
1026.81
-885.129
-2531.11
-383.171
571.296
-209.884
-858.262
-887.738
-861.265
-789.061
-592.655
-474.101
-463.381
-368.75
-102.735
205.581
400.11
460.615
437.386
373.218
318.521
-75713.8
85708
139937
-18695.6
-255093
-12985.7
210340
-13046.7
-94997.6
22934.1
19510.5
-8504.82
-3702.12
757.592
-1147.95
1988.88
3578.82
-974.119
267.949
3146.86
1951.98
-180.547
-461.516
739.907
1271.25
263.144
-415.344
-254.64
-281.704
-617.033
-754.473
-683.641
-671.323
-722.313
-683.268
-514.74
-345.284
-277.638
-271.941
-243.867
-158.082
-41.1409
-68891.1
37801.1
112376
11694.4
-111249
-63212.9
95349.2
37540.4
-33877.9
-4801.68
13068.7
1000.07
1246.75
-936.792
1744.19
7798.75
1692.23
-1075.13
5660.47
5206.22
536.056
-301.817
1220.94
2895.57
729.855
-1019.31
-205.297
594.554
280.89
-247.001
-461.549
-610.87
-792.327
-927.053
-971.111
-927.084
-904.881
-956.417
-964.206
-819.965
-551.618
-300.913
45537.1
-1353.34
-103088
30536
130662
50728.5
-120056
-28154.1
78331.5
-7132.12
-13850.4
14112.8
6115.35
-10083.9
9584.96
11025.9
-8846.08
959.738
9104.59
3315.13
-2657.4
813.53
5097.36
3644.21
-112.864
-593.906
1091.43
1034.46
178.79
18.4996
-57.6298
-522.268
-880.604
-1007.87
-1154.99
-1331.56
-1474.18
-1538.11
-1452.54
-1216.62
-901.417
-649.961
-64211.5
31521.2
99900.6
12464.7
-91524.2
-73479
46561.7
94532
-31071.1
-25843.6
9041.11
11038.1
4408.99
-9384.93
10065.9
8003.9
-7398.78
8352.88
9813.45
-2549.39
-560.061
3707.98
6048.99
1967.31
-1561.77
1380.1
2909.43
1186.9
-208.741
165.826
197.139
-474.357
-897.928
-1007.32
-1245.27
-1613.79
-1895.76
-1937.46
-1764.64
-1528.74
-1302.5
-1141.27
-46337.2
-6173.91
-16594.7
104943
40379.6
-87263.1
-70639.8
33079.8
54161.7
-23996.5
-8699.23
18492.3
4750.18
-3363.47
10126.7
453.116
-1988.83
9289.92
5804.42
-4812.83
2665.76
6457.67
4447.04
823.908
-327.909
3096.39
2934.17
545.91
56.3929
666.852
326.074
-485.988
-862.679
-971.17
-1254
-1726.64
-2113.1
-2163.99
-1991.52
-1872.08
-1834.63
-1802.27
66864.6
-9759.26
-127829
-1278.63
137117
29410
-55245.3
-73501.6
46575.4
28147.6
-17056.8
6354.53
1791.7
3208.93
8983.94
-3379.41
4215.78
8794.94
764.006
416.668
5582.82
5861.18
2901.63
1771.23
2897.73
3738.74
1673.41
241.217
755.16
1035.07
485.94
-201.356
-631.963
-916.462
-1223.26
-1631.3
-2029.04
-2229.24
-2282.35
-2381.8
-2533.74
-2626.25
-104265
80272
110038
23235.1
-136088
-8262.83
104099
-19368.2
-37300.7
35183.3
6685.51
-714.279
1841.4
8906.43
5395.36
-2791.33
5838.64
8826.72
3607.95
2889.66
2865.58
2215.39
2889.2
3773.76
3516.56
2240.43
1122.03
1360.17
1525.76
1188.51
776.896
406.639
-26.558
-530.632
-1054.87
-1517.68
-1869.65
-2205.65
-2624.04
-3056.73
-3364.69
-3517.16
-90786.9
109271
147216
-46566.4
-155717
20180.4
140597
-12282.8
-47662.2
27612.1
14055.5
2281.74
1390.87
6928.37
402.93
1421.69
8854.08
6442.84
3370.16
2962.72
2212.09
2337.66
2766.52
2753.02
1515.94
1418.62
3204.09
3366.76
1944.01
928.555
720.845
634.474
506.24
171.337
-526.634
-1309.43
-1833.74
-2283.45
-2965.21
-3714.58
-4172.57
-4346.38
142151
-126705
9536.82
-98638.5
-23302.6
169094
13995.8
-50626.7
-4412.42
35364
-6836.75
3289.05
3328.47
1429.17
-178.08
1685.04
3414.09
5555.31
6131.14
2986.48
1559.17
3754.11
3264.34
1185.52
-115.003
1244
4240.5
4575.19
2718.68
1300.41
778.538
619.316
758.354
677.994
-14.997
-1050.06
-1902.06
-2533.34
-3299.73
-4171.46
-4752.41
-4996.74
48648.3
-30585.7
75551.2
-75171.3
-128862
89082.8
114384
-42963.6
-79892.4
41170.6
8246.71
-6210.32
2493.07
4696.86
1780.18
188.424
2823.28
3483.53
995.964
1402.3
4407.93
4658.1
2365.5
993.52
1474.64
2372.93
2541.82
2711.13
3048.57
2612.31
1655.85
1108.14
965.863
700.573
59.1341
-896.048
-1900.91
-2768.35
-3589.74
-4400.85
-5002.74
-5372.72
90388.8
745.928
-181834
-21381.1
156260
76581.7
-116995
-61419.4
55911.4
3176.35
-9704.14
5049.63
467.767
4466.47
4656.71
-1670.68
6249.68
6376.82
-1169.71
2951.7
6727.07
3230.67
-827.669
2159.97
4583.67
3645.76
1676.94
1082.47
2746.97
2723.83
1969.65
1671.65
1272.21
491.217
-286.634
-1005.83
-1851.76
-2801.25
-3714.87
-4477.74
-5043.02
-5482.48
90406.2
19793.5
-243932
-682.94
262778
56843.3
-259612
-40153.9
133118
3832.75
-20909.6
8535.36
1937.47
6449.8
2678.54
-1193.67
7533.24
4450.57
-1719.94
4299.18
7075.25
3407.72
1386.2
3848.49
4818.05
2446.61
953.651
1754.43
2836.92
2113.9
1535.23
1729.83
1275.26
157.096
-684.707
-1206.51
-1887.25
-2757.45
-3671.22
-4382.54
-4840.05
-5275.75
-13270.5
-48109.2
-78158.6
167373
111092
-79102.3
-147048
20166.4
121322
-32187
-13903.8
11659.6
2542.21
6969.47
8361
4222.14
6447.46
4030.18
-2295.45
-874.884
4917.96
6569.24
4364.48
2912.24
2522.07
2291.24
2370.84
2910.12
2570.9
1314.53
1330.1
1644.48
631.274
-622.242
-1065.03
-1250.75
-1864.04
-2729.28
-3507.61
-4067.04
-4439.65
-4795.16
-157407
36453.2
190516
-28043.7
-21197.4
-212295
-8832.71
238994
-2533.13
-86885.5
10818.6
27594
604.511
-2974.84
13002.9
5331.25
-1140.39
3703.59
715.251
310.564
7109.57
7197.2
1647.18
-556.104
2059.85
3851.63
2529.1
2076.82
1916.34
1632.53
1693.15
1307.08
133.483
-949.109
-1276.21
-1464.78
-2092.38
-2862.59
-3325.72
-3609.07
-3836.79
-4046.91
-16745.8
123752
58104
-9371.36
-313798
-22601
290981
32747.1
-104532
-23881.4
34033.2
9482.25
1045.67
3144.57
9991.94
-2421.59
-1469.38
5679.93
2626.96
4327.21
7344.78
3754.97
-1134.93
392.613
4014.43
3585.09
1239.19
1154.85
2018.1
2334.3
1635.41
479.797
-661.423
-1353.97
-1443.75
-1514.02
-2099.51
-2750.26
-3054.68
-3141.58
-3131.88
-3097.98
177634
-113814
-36073
-163753
-12176.7
227946
93562
-108733
-49167.9
59000.3
1314.34
1058.32
-3352.63
4521.6
11120.3
-907.537
2229.91
7269.52
3847.58
2852.07
1600.31
-967.22
699.478
4978.41
4838.85
1073.6
332.284
2211.49
2262.71
806.216
332.601
-257.732
-998.675
-1519.64
-1525.19
-1432.14
-1733.12
-2210.62
-2512.11
-2563.95
-2419.21
-2245.06
34764.4
-5587.76
-97156.5
122535
63480.9
-25686.4
-107677
34332.5
87170
-39044.4
-16232.4
24721
-12799
7570.9
14187.7
-5901.61
7818.46
9537.6
-5425.68
-853.774
6274.39
4198.45
958.913
2681.44
2910.44
-156.099
550.839
3192.06
1714.02
-981.207
-1468.67
-1116.33
-1060.33
-1474.33
-1480.88
-1136.65
-1191.08
-1543.32
-1756.28
-1751
-1618.87
-1540.98
-153760
66313.1
233738
1642.35
-123337
-189244
75300.3
226261
-59922.5
-112947
48941.1
20601.1
-14186.4
10320.3
589.364
-7906.75
14569.5
7444.19
-14472.7
-2398.42
12641.8
9376.18
650.979
-2145.39
-1736.04
-787.093
2780.16
3734.21
-315.339
-2497.39
-1905.9
-727.114
-653.394
-1416.17
-1367.58
-860.815
-876.769
-1037.1
-924.612
-757.094
-720.208
-874.963
24070.3
58598.5
76190.5
-123120
-172248
109910
183151
-52706.5
-124319
39487.3
58795.8
-30841.4
1614.72
10398.9
-11064.7
-4645.31
14419.7
4229.7
-10338.3
-1032.5
8598.64
5635.25
-1024.87
-4306.76
-3611.99
798.843
4200.66
1757.69
-2176.57
-2658.54
-1146.73
-35.4657
-85.8092
-632.749
-537.975
-498.855
-777.572
-669.904
-198.377
107.054
53.6023
-237.971
-25794.3
-15415.5
-14798.3
111754
59462.1
-120438
-62807.1
68775.9
58254.7
-36609.5
-20085.1
14187.8
3677.72
-1838.15
-2735.13
-561.955
3996.19
228.966
31.2165
3998.62
2945.53
-1153.46
-3530.43
-3378.19
-986.976
2535.06
2309.72
-1391.29
-2628.75
-1027.01
389.427
671.778
236.464
-120.737
95.294
91.6267
-102.571
58.5653
460.846
696.765
600.115
347.108
-102670
-9199.48
35354.5
216484
8225.22
-200701
-109679
155842
87354.7
-56092.4
-48432.5
37322.9
-3728.02
-1998.65
-550.896
430.383
-975.27
-4145.98
1195.7
1648.63
-3782.03
-5050.15
-1989.07
227.246
191.457
184.247
-632.992
-2744.27
-1776.95
574.628
1062.54
1001.17
391.191
28.4678
353.428
812.893
1051.84
1138.08
1176.14
1145.7
978.568
836.786
25784.5
-8382.88
-82915.6
11249.2
199057
66019.4
-249208
-35515.5
120966
16823.6
-30300.3
676.356
3300.08
3059.18
-5428.94
-990.668
1808.87
-4406.31
-1409.58
247.68
-4249.56
-6043.57
-3031.78
-219.903
-543.138
-2094.98
-2821.45
-2320.74
7.19476
1307.68
829.513
591.827
210.617
189.626
671.331
1235.89
1645.53
1862.78
1848.45
1707.84
1542.96
1524.23
110850
-125267
-44748.4
-89513.3
-18608.8
226301
89194.2
-252096
-30421.3
113794
-167.225
-40413.7
5644.51
2008.01
-14392.5
-1186.69
1401.81
-6471.92
-5092.09
-2468.25
-2662.09
-2681.61
-2522.08
-2426.06
-2180.41
-2563.85
-3222.74
-1817.57
792.818
881.944
-154.982
-163.214
164.049
872.03
1267.89
1188.19
1475.56
2074.46
2328.34
2297.17
2313.29
2507.43
-1519.35
-55059.3
-47308.7
144009
59517.4
-140429
-79600.8
75552.5
35584.6
-39235.9
-25749.3
-5494.04
5494.4
-7064.1
-6926.89
6121.62
-8552.89
-11576.9
-101.664
-2031.19
-7534.07
-3733.67
-1160.26
-3194.88
-3797.09
-2027.32
-829.304
-89.6279
396.312
-465.332
-1506.62
-958.043
519.101
1550.66
1482.93
789.605
1129.62
2091.03
2600.27
2761.31
3048.15
3504.06
-221768
66651.8
198729
18744.1
-8572.38
-293456
32950
230353
-42822.7
-125931
17688.3
4967.95
-7584.78
-12461.7
-12724.8
9062.3
-8207.16
-15874
3928.14
1069.8
-14117.9
-3708.59
3674.44
-2143.67
-7474.77
-2422.29
3165.1
835.517
-2015.77
-2814.24
-2174.91
294.17
1888.5
1477.1
793.377
481.482
1354.52
2417.68
2744.57
3008.95
3587.6
4296.03
-46603.1
103169
93868.2
-59532.2
-247082
-1370.84
242269
17394.7
-171160
-49097.5
77691
-23951.2
-5830.42
-5978
-4013.36
819.972
-22230.1
-243.579
12665.3
-6587.21
-15774.1
980.528
5484.35
-5081.35
-8116.49
-332.381
4054.7
358.623
-3585.95
-4681.27
-1675.59
1425.92
2304.66
849.447
270.322
359.74
1739.78
2966.87
2873.59
3142.68
3866.35
4661.39
-186300
137971
207113
24877.7
-291334
-43957.7
229709
-36795.4
-75413.9
12465.3
5388.3
-8051.36
15855.9
-15508.8
2470.88
-4522.76
-32264.2
16725.3
16006.1
-21453
-12618.4
8482.95
3783.9
-10731.2
-4251.98
3975.95
819.394
-3306.6
-3656.2
-2780.63
-1419.94
612.914
1815.35
399.808
-475.707
1046.9
2416.5
2783.8
2822.63
3251.3
3999.39
4596.13
-61868
97883.2
117761
10508.9
-240321
-140281
185699
164910
-57396.7
-125135
11191.1
50510.8
-6242.43
-9625.76
11962.7
-16013.2
-21307
22848.2
17867
-25778.9
-4514.37
7665.4
-2037.61
-5841.38
-1046.5
-127.123
-3290.33
-2884.43
-1490.56
-1886.94
-1449.24
524.717
728.706
-530.973
-303.432
1256.03
2129.3
2384.75
2637.99
3305.98
4034.32
4365.9
-63419.5
-29115.9
6459.72
155264
91675.8
-233351
-68751.2
197200
87938.7
-107393
-39302
53046.1
-8918.39
-4920.99
8817.28
-10893.7
-5628.38
7741.02
-3512.59
-9556.57
-1641.99
1171.5
-1094.61
-737.384
-984.261
-2536.31
-1782.71
-210.066
-1197.99
-2885.6
-1852.9
61.3273
158.688
-453.075
172.44
1200.86
1634.14
1822.54
2250.26
3054.88
3709.53
3859.2
79771.7
14253.6
-111748
-41395.4
81703.8
111477
54017.6
-172922
-26997
105399
-4949.33
-25160.9
5248.1
3323.45
939.083
-9033.24
-1550.52
6163.3
-6311.31
-8445.59
2314.82
4122.74
-2620.04
-6278.56
-4093.1
-662.459
114.508
-557.191
-1418.93
-1930.19
-1092.33
-268.838
-31.0331
226.298
704.03
906.213
977.956
1277.28
1856.06
2578.63
3016.02
3124.01
122723
-124470
-35308.2
-78180.4
15674.4
129814
48805.2
-138874
-25368.9
92214.3
-36646.4
-24558.2
27386.7
-15630.2
-3723.59
4931.48
-13055.5
-3843.97
1320.81
-6137.96
-3886.92
960.094
-825.028
-4888.35
-4670.41
-1314.35
140.272
-624.342
-1060.46
-487.7
495.357
380.525
-194.524
97.5396
731.253
810.46
649.856
812.072
1367.25
1946.49
2145.22
2242.99
-132944
-13410.5
127121
129762
47423.4
-292868
-106419
201458
143521
-145736
-117742
94167.8
-12803.2
-45533.4
1549.46
22686.7
-9071.96
-20739.2
439.777
5044.76
-5558.88
-3624.2
944.149
-922.954
-4303.47
-1311.44
1107.37
408.359
-1254.44
-1040.05
1454.05
1521.22
-285.964
-534.78
694.062
1156.29
685.71
341.915
646.227
1055.67
1161.17
1384.59
-105219
-7566.44
108852
96867.1
65539.9
-288325
-86306.1
236847
163830
-235218
-113358
128202
-36128.1
-36660.3
10331.4
14577.8
-6634.67
-25078.2
-2469.72
11680.8
-562.496
-5430.95
-281.77
1660.63
-964.533
-552.431
801.457
372.522
-1169
-1084.59
1156.45
1163.83
-613.052
-566.82
983.498
1340.37
508.151
-17.5394
196.992
327.625
238.808
430.375
-40778.9
-14168.6
46558.4
-14072.8
39555.1
-137373
-68327.9
191317
52083.4
-160977
-60552.3
91142.1
-49043.9
-16846.5
25533.9
-5063.66
-14340.9
-1362.29
-1089.09
781.136
5107.68
548.116
-4936.37
-1737.43
2129.57
1396.55
232.033
428.033
256.132
-78.5723
132.044
148.625
-391.785
171.618
1209.56
947.521
-94.5124
-460.869
-251.192
-347.275
-582.649
-563.834
51827.8
-8223.82
-243754
-60346.9
356545
10387.9
-92112.4
-231436
25107.6
140272
-32624.3
-37318.3
-82.2606
16518.5
1903.51
-21993.1
3740.74
15972.6
-4892.84
415.439
6130.18
-1666.72
-3288.53
1288.06
1569.63
-1611.1
-537.297
1309.2
588.595
-266.26
630.258
1096.72
509.299
654.403
1008.21
335.431
-615.913
-860.689
-821.727
-1053.85
-1326.57
-1465.26
71810.8
-28993.7
-137092
-2577.29
341149
2341.59
-279656
-196945
258969
98886.3
-85978.2
-54978.6
39765.6
4386.41
-4935.18
6970.7
5266.64
-11238
-1771.79
9045.62
25.6383
-4322.11
1939.18
4398.09
1041.34
-762.723
-251.395
-103.745
576.568
2114.25
2153.81
342.869
-237.416
882.017
1138.72
90.9134
-972.876
-1257.04
-1313.59
-1628.3
-1985.1
-2158.21
189315
-84684.7
-263212
-41199.4
205216
199816
-14982.9
-387836
23745.8
237968
-14514.6
-52347
9940.35
4842.85
8199.22
20393.3
-5154.42
3954.71
9121.37
-12196.8
-4818.53
11380.7
7468.01
-3629.92
-1250.02
3344.47
2075
-4.40446
1192.56
2654.52
735.306
-1460.79
-311.973
1021.16
832.111
-384.094
-1416.32
-1607.81
-1628.53
-2070.33
-2493.94
-2461.28
-175389
34787.9
95676.6
233178
36304.3
-214394
-133796
161600
108332
-49297.6
-52146.8
32580.4
6357.84
3077.19
23051.2
-5507.05
-29614.2
34107.8
26897.6
-26505.3
-5301.43
21440.2
12644.6
-15550.3
-502.149
11827.1
2795.78
359.736
1638.38
512.226
-1648.46
-1234.88
803.112
476.918
-644.118
-1168.96
-1423.59
-1579.78
-1932.32
-2591.43
-2836.11
-2474.1
-121014
-12855.7
175713
153121
68076.2
-429841
-61210.1
449656
9287.1
-166765
14883.8
50395.9
15895
6853.91
16934.6
-24097.6
-4935.48
48764.6
10256.1
-40910.6
13845
23610.6
-9151.16
-7643.24
11114.3
11476.1
1456.45
148.184
-825.62
-3391.35
-767.909
2375.28
1640.81
-790.39
-2379.14
-1149.55
-771.921
-1388
-2436.44
-3192.6
-2976.74
-2490.8
-411185
271757
460431
3446.58
-476508
-218788
343798
288682
-256708
-57788.3
127110
8097.13
2504.22
15003.4
3064.58
-13686.8
25305.7
20804
-17378.4
-3317.81
12274.1
3350.88
-1819.1
4060.64
6172.19
4994.72
4105.52
1009.98
-4705.8
-4657.35
3871.9
4063.3
-715.791
-1853.18
-2062.1
-647.852
-212.884
-1445.74
-3097.79
-3236.42
-2703.79
-2621.33
-279573
206081
317325
-127143
-487140
160203
411890
-78266.6
-227635
84573.7
129913
-29244.7
2558.09
1549.05
11480.5
22560.7
-10661.1
3454.34
17901.1
-5591.47
-17484.7
9106.64
17037
1421.54
-5875.14
1453.62
5516.87
685.319
-1940.31
1107.06
3553.6
1140.62
-1218.14
-1438.02
-739.784
-577.016
-1022.81
-2501.31
-3177.12
-2545.61
-2287.98
-2681.71
-8762.57
149114
104606
-93686
-352607
67559.4
344879
19962.9
-214565
-6933.92
156329
-34091.5
-10694.5
12831.3
13869.5
-5848.14
-36735.8
32282
37974
-31549.1
-16884.8
23128.8
18082.9
-5126.8
-7265.88
1196.33
5866.68
4990.79
3276.86
574.033
-2138.16
-1256.66
902.037
467.963
-313.948
-1249.9
-2313.18
-2982.57
-2786.26
-1942.96
-1857.68
-2710.57
-53817.2
168498
148141
-58808.3
-360547
51569
378304
-16372.7
-274632
118.652
168362
-38881.3
-3974.4
20090.8
8607.37
-33197.3
-34111.9
61515.3
38795.9
-47316.5
-8851.18
27096.7
7080.56
-11130.8
-5365.19
3897.77
6145.17
6596.43
3479.08
-1481.47
-4479.61
-917.396
3636.64
1349.39
-1266.84
-2560.86
-2643.69
-2095.2
-1515.07
-1566.07
-2189.08
-2699.33
157876
-146618
53242.4
-161270
-152730
242816
253588
-171684
-291684
186887
132405
-78985.3
-17237.1
25921.3
3764.4
-17764.9
-7156.1
37672.9
5384.73
-26330.2
7354.53
18637.3
-2794.52
-8133.75
-1141.54
4688.53
5552.01
5396.24
1279.46
-4721.89
-3615.9
2176.97
3912.16
741.858
-2312.61
-2851.12
-2027.24
-813.071
-683.254
-1567.67
-2359.87
-2244.18
17426.9
-66284
28257.5
158727
98646
-198965
-75659.1
140029
-5692.93
-37815.8
17275.9
-4662.15
-174.167
-1290.77
19417.4
-6171.87
-8129.03
13197.2
-4531.5
-7019.65
2165.54
-456.346
-881.557
2534.64
2041.23
475.792
3442.17
4421.81
-155.036
-6207.23
-2246.74
4069.44
2388.55
-412.695
-2115.82
-1808.22
-633.492
13.6965
-859.382
-2031.69
-2170.17
-1293.27
-194304
-32531.4
10795
323040
137575
-472979
-130204
426068
36556.1
-219321
-39702.5
89183.7
-22062.4
312.399
33112.9
-49172.4
-18647.5
37663.9
11752.9
-8148.5
-12925.6
-7827.38
10274.8
12623.3
1393.98
-5480.7
-831.37
721.422
-5845.07
-3552.64
3297.6
2800.93
-188.784
-1667.28
-1239.38
-226.143
573.992
227.686
-1253.58
-2244.99
-1581.15
-276.442
-369760
139308
477220
-71274.8
-207336
-408957
221114
440933
-176803
-266085
121547
74702.1
-31984.6
8032.63
-3025.07
-30327.2
-1966.38
-4703.67
14309
8291.25
-28963.6
-9351.83
22193.7
14549.3
-6767.4
-6012.66
364.14
-1686.44
-7445.42
247.002
6324.46
236.799
-3226.86
-1909.06
-91.0123
1073.62
1023.13
81.0797
-1356.5
-1809.08
-585.88
444.51
-249836
132766
415834
-49280.3
-239008
-255835
17563.4
302409
77395.4
-161065
-93291.7
62295.4
-3162.95
-19707.7
-17188.3
9063.78
-16416.9
-23410.8
33069.1
11228.4
-40567.4
2699.58
22992.2
-2272.9
-10665.5
238.238
3448.77
-6248.02
-2473.34
6451.81
4025.34
-1917.64
-3109.05
-983.136
422.719
695.828
291.896
-421.87
-1206.02
-756.253
587.683
731.922
292387
69600.4
-370920
45435.7
424146
73394.2
-440262
-122554
321971
-10694.1
-205710
22747.6
-6585.88
-26738
8402.71
2402.28
-33255.7
16930.8
24847.3
-28476.1
-7110.81
15608.6
-665.911
-10051.8
328.372
5107.04
-739.374
-3422.08
2584.1
4562.18
-338.489
-2097.78
-1104.16
-327.39
12.2823
-136.259
-404.137
-730.59
-554.283
756.416
1503.54
676.66
234789
56723.8
-610854
57941.4
566765
-17461.5
-571247
-13510.5
423530
-121385
-191189
68371.6
-4117.54
-17557.4
17145.8
-28209.5
643.141
35419.6
-27969.1
-21520.1
26381.9
12514.8
-24723.8
-3872.47
11464.3
1349.07
-5548.89
1625.18
4630.27
-1320.39
-2900.58
-631.562
56.8624
-363.126
-620.153
-597.364
-470.883
-290.872
740.026
2051.6
1739.53
665.367
388190
-42480.8
-605430
227678
372341
-144886
-415381
86704.2
403642
-284808
-110347
150770
-40047.8
-12194.6
8690.04
-36821.8
48830.9
22707.2
-77010
93.6759
45815.8
-14617.9
-17025.3
9503.27
11128.9
-5498.69
-3753.66
3854.29
2289.24
-2702.51
-2464.81
-660.628
-334.424
-275.783
-133.42
-290.124
-282.11
576.286
2066.24
2502.45
1471.01
1036.4
252651
-56946.8
-453531
235908
351115
-307248
-282394
325293
95131.8
-191252
-32877.9
119734
-73643.9
-8044.4
4748.65
-9704.28
38359.2
-12097.5
-47303.4
17512.9
30929.9
-18732.7
-9363.36
9619.76
6562.95
-5156.11
-5382.73
817.118
2670.01
-342.699
-2521.31
-1698.7
-271.487
164.422
472.856
210.83
324.756
1638.28
2686.97
2116.18
1277.93
1833.42
-132516
-28719.4
-32827.5
271589
180965
-469514
-129523
517521
-51752.5
-187960
64219.3
31236.5
-78887.4
21365.3
18243.8
-22124.9
27280.9
16491.2
-42280.5
-1124.27
26360.9
-9139.18
-14031.4
6124.34
7789.07
-6497.17
-7979.46
2348.31
3595.72
-4070.14
-5047.7
-241.007
2224.31
1180.77
759.667
627.438
1137.71
2033.82
2237.77
1662.44
1697.94
2778.51
-211470
-3335.37
486363
-59571
-114116
-506797
137177
537940
-136072
-191497
124334
-20961.5
-53959.6
56805.1
4013.78
-22675
24339.4
1825.65
-25985
13799.5
9141.16
-22939.9
-1946.17
9466.33
-2759.95
-10533.5
860.423
7296.69
27.2232
-8085.66
-3720.53
2789.84
1215.5
16.7669
839.658
2355.67
2761.91
1770.44
1156.77
1359.72
2394.84
3568.8
-551251
366359
546774
16975.8
-764226
-180806
714007
-65988.3
-242353
39770.5
155182
-114992
3646.64
28856.6
-32522.4
7297.45
15659.6
-5107.39
8618.75
-4180.09
-26174.9
2396.64
14184.1
-5453.33
-13681.2
-563.653
7055.21
-168.571
-8076.72
-3028.33
3969.61
2378.14
-490.189
-478.162
1283.56
2820.06
2535.2
1173.34
930.041
1610.66
2996.89
4028.62
174296
-359380
19909.7
-226731
-56079.5
604095
169326
-493851
-84165.9
333099
-27231
-118484
71621
-43813.9
-15063.4
34543.3
-12821
591.899
20555.2
-24520.9
-23038.3
22455.8
14887.4
-19841.1
-10141.8
8302.42
5798.1
-7419.82
-8662.95
726.735
4150.87
-290.623
-227.292
1837.45
2565.16
1959.13
653.483
611.835
1482.36
2320.31
3346.18
3975.97
420938
-229331
-502667
-137935
594704
325401
-488702
-323720
376348
61636.4
-144434
45545.8
-1427.13
-34926.4
39289
-7863.09
-17769.6
18945.8
5922.49
-20815.6
-10330.4
9021.94
5852.53
-5098.15
-4135.75
1146.93
1212.37
-3851.21
-4755.69
-294.634
1427.09
-1073.3
261.952
2676.27
1973.88
427.127
-333.807
581.344
2002
2886.3
3353.89
3462.75
327843
-16553.4
-659534
131386
587521
-87420
-618078
44810.4
480957
-182859
-142333
149819
-49777.8
-6715.78
29437.1
-33786.5
26169.1
23187.5
-25841.9
-9044.42
-3160.88
-4198.82
8382.78
3711.81
-8705.04
-5301.8
-41.3581
-2527.21
-4635.66
1214.74
3458.66
-348.412
28.7768
1497.98
550.496
-195.264
185.157
837.685
1805.3
2770.08
2965.15
2819.86
-113957
-9227.01
-220852
501725
225036
-507061
-315552
621813
-34155.4
-209409
7501.02
120611
-59199.8
10708.5
-20559.6
-6371.98
51448.3
-27600.1
-12011
21093.3
-24160.3
-13364.8
19448.2
7341.05
-15896.2
-7557.06
979.784
-3065.05
-1473.06
4896.16
3559.04
-1351.81
-1229.58
525.099
527.37
379.781
589.431
842.055
1704.21
2344.06
2264.21
2306.57
-447701
189310
710396
30153.7
-444973
-308347
372217
365921
-449907
-132838
276419
-25802.7
-46773.1
19797.6
-37895.9
11527.1
10506.8
-43736.5
35682.5
30990.5
-61595.8
-10164.2
32378.3
-593.005
-16736.8
-5842.08
1876.86
247.255
3880.91
4595.63
-224.591
-2537.5
-1240.43
840.701
918.676
263.623
282.31
915.108
1663.15
1855.04
1614.08
1742.12
-330260
270117
264378
-319301
-240647
274632
403960
-325209
-283649
279352
45902.5
-88711.7
6485.62
-21530.1
-21508.7
6916.46
-32300.7
1624.92
49099.8
-21650.3
-48692.6
14817.6
30523.9
-11402.6
-11445.8
850.673
4497.95
2595.8
1923.11
-67.4798