/*--------------------------------*- C++ -*----------------------------------*\
| =========                 |                                                 |
| \\      /  F ield         | OpenFOAM: The Open Source CFD Toolbox           |
|  \\    /   O peration     | Version:  2412                                  |
|   \\  /    A nd           | Website:  www.openfoam.com                      |
|    \\/     M anipulation  |                                                 |
\*---------------------------------------------------------------------------*/
FoamFile
{
    version     2.0;
    format      ascii;
    arch        "LSB;label=32;scalar=64";
    class       volScalarField;
    location    "0.013";
    object      ddt0(rhoY);
}
// * * * * * * * * * * * * * * * * * * * * * * * * * * * * * * * * * * * * * //

dimensions      [1 -3 -1 0 0 0 0];

internalField   nonuniform List<scalar> 
8988
(
-5.46457e-71
-6.73959e-71
-7.96155e-71
-1.04775e-70
-9.47713e-71
-7.5821e-71
-9.26729e-71
-1.01809e-70
-9.0946e-71
-8.75296e-71
-8.68956e-71
-8.82064e-71
-6.04173e-71
-4.57354e-71
-3.43136e-71
-2.87258e-71
-1.28313e-71
1.49504e-72
5.06668e-72
1.0361e-73
-1.48623e-71
-4.29372e-71
-8.563e-71
-1.41891e-70
-2.09118e-70
-2.81311e-70
-3.58348e-70
-4.43248e-70
-5.30504e-70
-6.17171e-70
-7.00064e-70
-7.75884e-70
-8.401e-70
-8.89325e-70
-9.24259e-70
-9.46242e-70
-9.58023e-70
-9.61793e-70
-9.60858e-70
-9.59116e-70
-9.59373e-70
-9.60282e-70
-2.62782e-71
-1.29915e-70
-2.41088e-70
-8.72479e-71
-6.96472e-71
-2.05018e-70
-1.54463e-70
-1.61487e-70
-1.74428e-70
-1.2694e-70
-3.91619e-71
-4.56986e-71
-1.42761e-70
-5.70855e-72
8.96853e-71
1.39099e-70
1.37032e-70
1.90266e-70
2.09676e-70
1.76053e-70
1.07411e-70
1.57152e-72
-1.50931e-70
-3.48401e-70
-5.69221e-70
-7.98822e-70
-1.02899e-69
-1.23628e-69
-1.40191e-69
-1.5103e-69
-1.55316e-69
-1.52691e-69
-1.43296e-69
-1.28107e-69
-1.09169e-69
-8.87739e-70
-6.91157e-70
-5.18894e-70
-3.81759e-70
-2.85202e-70
-2.30073e-70
-2.12699e-70
-2.18148e-70
-4.02042e-70
-5.76751e-70
-4.04768e-70
-1.37146e-70
-3.29986e-70
-3.4802e-70
-1.92323e-70
-3.02595e-70
-1.68986e-70
1.9069e-70
2.7975e-70
3.34549e-70
6.75126e-70
9.61194e-70
1.1324e-69
1.28072e-69
1.32451e-69
1.16588e-69
7.61716e-70
8.7568e-71
-8.81085e-70
-2.13743e-69
-3.62748e-69
-5.25051e-69
-6.87225e-69
-8.3306e-69
-9.44882e-69
-1.00603e-68
-1.00412e-68
-9.33419e-69
-7.95876e-69
-6.01308e-69
-3.6657e-69
-1.13429e-69
1.35287e-69
3.59684e-69
5.45971e-69
6.87669e-69
7.84958e-69
8.4208e-69
8.64257e-69
-4.42949e-70
-6.14857e-70
-6.07239e-70
-4.95963e-70
-2.56141e-70
-6.07629e-71
-6.97941e-72
3.02874e-70
5.27876e-70
6.22727e-70
1.06151e-69
1.46118e-69
1.76084e-69
2.1568e-69
2.51145e-69
2.74432e-69
2.75962e-69
2.41492e-69
1.58482e-69
1.41757e-70
-2.02503e-69
-4.95642e-69
-8.5983e-69
-1.2794e-68
-1.72653e-68
-2.16168e-68
-2.53693e-68
-2.80151e-68
-2.90927e-68
-2.82689e-68
-2.54105e-68
-2.0628e-68
-1.42754e-68
-6.90601e-69
8.10878e-70
8.20384e-69
1.47178e-68
1.99987e-68
2.39162e-68
2.65379e-68
2.80389e-68
2.86263e-68
1.37712e-69
1.39741e-69
1.63327e-69
1.81774e-69
2.2055e-69
2.64988e-69
2.96311e-69
3.18537e-69
3.35534e-69
3.14773e-69
2.67987e-69
2.06673e-69
1.01787e-69
-3.2478e-70
-1.86024e-69
-3.51932e-69
-5.19463e-69
-6.74954e-69
-8.00987e-69
-8.8263e-69
-9.08818e-69
-8.71901e-69
-7.67972e-69
-6.00215e-69
-3.79003e-69
-1.19913e-69
1.57506e-69
4.31405e-69
6.78578e-69
8.76438e-69
1.00631e-68
1.05557e-68
1.01876e-68
8.98895e-69
7.08423e-69
4.68639e-69
2.07662e-69
-4.46153e-70
-2.63767e-69
-4.33218e-69
-5.44072e-69
-5.92208e-69
9.86364e-69
9.85802e-69
1.01289e-68
9.7294e-69
8.95497e-69
9.05157e-69
9.21329e-69
7.64697e-69
5.48681e-69
2.67089e-69
-1.71714e-69
-7.56389e-69
-1.48183e-68
-2.31474e-68
-3.18513e-68
-4.0014e-68
-4.59238e-68
-4.77197e-68
-4.35951e-68
-3.15892e-68
-1.00503e-68
2.17955e-68
6.35689e-68
1.13512e-67
1.68318e-67
2.2322e-67
2.72376e-67
3.0955e-67
3.28983e-67
3.26331e-67
2.99537e-67
2.49401e-67
1.79646e-67
9.64633e-68
7.55431e-69
-7.91404e-68
-1.56769e-67
-2.2062e-67
-2.68629e-67
-3.01187e-67
-3.20224e-67
-3.27872e-67
1.61718e-68
1.70557e-68
1.55392e-68
1.23518e-68
7.30772e-69
1.03457e-69
-2.66506e-69
-7.71405e-69
-1.5593e-68
-2.3433e-68
-3.25662e-68
-4.38113e-68
-5.60228e-68
-6.8534e-68
-7.98458e-68
-8.85088e-68
-9.05064e-68
-8.10317e-68
-5.58883e-68
-1.10422e-68
5.768e-68
1.51995e-67
2.70495e-67
4.0821e-67
5.55909e-67
7.00342e-67
8.25396e-67
9.13951e-67
9.50348e-67
9.23252e-67
8.28082e-67
6.68488e-67
4.56486e-67
2.10911e-67
-4.56499e-68
-2.90744e-67
-5.05841e-67
-6.79132e-67
-8.06599e-67
-8.91039e-67
-9.39283e-67
-9.58399e-67
-4.36178e-68
-4.45545e-68
-5.05541e-68
-5.87245e-68
-7.05134e-68
-8.37133e-68
-9.51987e-68
-1.03617e-67
-1.07819e-67
-1.02564e-67
-8.7238e-68
-6.21696e-68
-2.52757e-68
2.26018e-68
7.95024e-68
1.39593e-67
1.96614e-67
2.46799e-67
2.82708e-67
2.95191e-67
2.79165e-67
2.31564e-67
1.5112e-67
4.10425e-68
-9.12818e-68
-2.35192e-67
-3.77242e-67
-5.02217e-67
-5.9571e-67
-6.46004e-67
-6.45526e-67
-5.9247e-67
-4.91314e-67
-3.52213e-67
-1.89678e-67
-2.03617e-68
1.3974e-67
2.77892e-67
3.86387e-67
4.6293e-67
5.09253e-67
5.27891e-67
-3.14785e-67
-3.03465e-67
-2.96968e-67
-2.86861e-67
-2.84917e-67
-2.86704e-67
-2.67809e-67
-2.31947e-67
-1.77769e-67
-8.7955e-68
5.10062e-68
2.4112e-67
4.81552e-67
7.62973e-67
1.06143e-66
1.33967e-66
1.54554e-66
1.6131e-66
1.47006e-66
1.04462e-66
2.77049e-67
-8.63747e-67
-2.36808e-66
-4.17431e-66
-6.16168e-66
-8.15461e-66
-9.93745e-66
-1.12785e-65
-1.19636e-65
-1.1834e-65
-1.08177e-65
-8.94994e-66
-6.37564e-66
-3.33048e-66
-1.028e-67
3.01559e-66
5.77908e-66
8.02587e-66
9.69345e-66
1.08083e-65
1.14512e-65
1.17067e-65
-5.343e-67
-5.06869e-67
-4.43196e-67
-3.19272e-67
-1.57678e-67
-9.5085e-69
1.40005e-67
3.38633e-67
5.66209e-67
8.02977e-67
1.0747e-66
1.38965e-66
1.73121e-66
2.08601e-66
2.41279e-66
2.62463e-66
2.62917e-66
2.31538e-66
1.52354e-66
1.0888e-67
-2.02949e-66
-4.9497e-66
-8.61979e-66
-1.28821e-65
-1.74528e-65
-2.19234e-65
-2.57903e-65
-2.85191e-65
-2.96248e-65
-2.87552e-65
-2.57706e-65
-2.0792e-65
-1.42011e-65
-6.58951e-66
1.33786e-66
8.88506e-66
1.54839e-65
2.07795e-65
2.46596e-65
2.72211e-65
2.86825e-65
2.92643e-65
1.39713e-66
1.45696e-66
1.62834e-66
1.90778e-66
2.28823e-66
2.73515e-66
3.16463e-66
3.48388e-66
3.61772e-66
3.47377e-66
2.92345e-66
1.92413e-66
4.60808e-67
-1.44745e-66
-3.63878e-66
-5.98197e-66
-8.24999e-66
-1.00326e-65
-1.09821e-65
-1.07972e-65
-9.14971e-66
-5.80398e-66
-7.70398e-67
5.75828e-66
1.3355e-65
2.13336e-65
2.88592e-65
3.5032e-65
3.89902e-65
4.00699e-65
3.79362e-65
3.26444e-65
2.46544e-65
1.47729e-65
4.01795e-66
-6.55872e-66
-1.60506e-65
-2.38387e-65
-2.96563e-65
-3.35597e-65
-3.58117e-65
-3.6677e-65
9.78171e-66
9.51626e-66
9.20162e-66
8.82679e-66
8.54388e-66
8.34518e-66
7.87039e-66
6.87781e-66
5.21407e-66
2.37892e-66
-2.06705e-66
-8.21217e-66
-1.61393e-65
-2.5546e-65
-3.55696e-65
-4.49947e-65
-5.20135e-65
-5.42495e-65
-4.91183e-65
-3.40435e-65
-6.83646e-66
3.37159e-65
8.73313e-65
1.51835e-64
2.2289e-64
2.94114e-64
3.57656e-64
4.05097e-64
4.28679e-64
4.22698e-64
3.84709e-64
3.1623e-64
2.22776e-64
1.13111e-64
-2.21549e-66
-1.12708e-64
-2.09724e-64
-2.87783e-64
-3.45045e-64
-3.82836e-64
-4.04339e-64
-4.12712e-64
1.57982e-65
1.45852e-65
1.19173e-65
7.83731e-66
2.60273e-66
-3.11782e-66
-8.6529e-66
-1.5356e-65
-2.28062e-65
-2.97938e-65
-3.74088e-65
-4.5484e-65
-5.36746e-65
-6.13933e-65
-6.7626e-65
-7.03769e-65
-6.70625e-65
-5.47449e-65
-2.9306e-65
1.30568e-65
7.49787e-65
1.58031e-64
2.61259e-64
3.80261e-64
5.07138e-64
6.30534e-64
7.36454e-64
8.10117e-64
8.38054e-64
8.10539e-64
7.23929e-64
5.81881e-64
3.95361e-64
1.81154e-64
-4.08953e-65
-2.51365e-64
-4.34591e-64
-5.81002e-64
-6.8784e-64
-7.58119e-64
-7.98079e-64
-8.13939e-64
-5.19412e-65
-5.01646e-65
-5.31881e-65
-6.31135e-65
-7.68075e-65
-9.17992e-65
-1.04737e-64
-1.16294e-64
-1.23384e-64
-1.16867e-64
-9.52067e-65
-5.62484e-65
2.03769e-66
7.75311e-65
1.66327e-64
2.60289e-64
3.46452e-64
4.10741e-64
4.36187e-64
4.04486e-64
3.00952e-64
1.16176e-64
-1.50954e-64
-4.89877e-64
-8.77311e-64
-1.27829e-63
-1.64859e-63
-1.9403e-63
-2.10945e-63
-2.12326e-63
-1.96681e-63
-1.64703e-63
-1.1926e-63
-6.49748e-64
-7.42553e-65
4.78497e-64
9.63139e-64
1.35117e-63
1.63339e-63
1.81724e-63
1.9199e-63
1.95766e-63
-3.11662e-64
-2.94526e-64
-2.77869e-64
-2.60355e-64
-2.47192e-64
-2.30862e-64
-2.11509e-64
-1.83366e-64
-1.25204e-64
-3.44485e-65
1.0145e-64
2.98148e-64
5.49389e-64
8.48591e-64
1.1733e-63
1.47751e-63
1.70191e-63
1.76831e-63
1.58643e-63
1.06568e-63
1.28173e-64
-1.27074e-63
-3.12404e-63
-5.35779e-63
-7.82168e-63
-1.02924e-62
-1.24926e-62
-1.41249e-62
-1.49163e-62
-1.46681e-62
-1.32986e-62
-1.08688e-62
-7.58183e-63
-3.75324e-63
2.42813e-64
4.04058e-63
7.34601e-63
9.98046e-63
1.18937e-62
1.31433e-62
1.38467e-62
1.41164e-62
-4.22379e-64
-3.75732e-64
-2.93218e-64
-1.39432e-64
4.72764e-65
2.30332e-64
4.44863e-64
7.07484e-64
9.36563e-64
1.13584e-63
1.33642e-63
1.50094e-63
1.61794e-63
1.68285e-63
1.66844e-63
1.54553e-63
1.25625e-63
7.41971e-64
-6.19842e-65
-1.23525e-63
-2.82948e-63
-4.86355e-63
-7.30861e-63
-1.00625e-62
-1.29428e-62
-1.56936e-62
-1.8e-62
-1.95265e-62
-1.99731e-62
-1.91285e-62
-1.69183e-62
-1.34359e-62
-8.94348e-63
-3.83807e-63
1.41571e-63
6.36981e-63
1.0669e-62
1.41018e-62
1.6613e-62
1.82764e-62
1.92343e-62
1.96241e-62
1.9407e-63
1.73986e-63
1.72546e-63
2.07349e-63
2.54228e-63
2.98156e-63
3.40603e-63
3.86288e-63
4.05997e-63
3.8112e-63
3.00911e-63
1.50239e-63
-7.586e-64
-3.73295e-63
-7.21638e-63
-1.08969e-62
-1.42689e-62
-1.66424e-62
-1.72641e-62
-1.53321e-62
-1.0128e-62
-1.19334e-63
1.15343e-62
2.7579e-62
4.58429e-62
6.46425e-62
8.18588e-62
9.51885e-62
1.02505e-61
1.02249e-61
9.37581e-62
7.74654e-62
5.48824e-62
2.83503e-62
6.22198e-64
-2.564e-62
-4.83348e-62
-6.62318e-62
-7.9047e-62
-8.72668e-62
-9.179e-62
-9.34475e-62
9.38163e-63
8.89799e-63
8.2446e-63
7.34736e-63
6.63756e-63
5.8398e-63
4.8295e-63
3.75795e-63
1.97749e-63
-1.03034e-63
-5.23021e-63
-1.10598e-62
-1.86872e-62
-2.7718e-62
-3.74792e-62
-4.66688e-62
-5.33515e-62
-5.49955e-62
-4.86176e-62
-3.12389e-62
-2.13889e-64
4.60725e-62
1.07488e-61
1.81626e-61
2.63499e-61
3.4561e-61
4.1858e-61
4.72334e-61
4.9763e-61
4.8779e-61
4.40219e-61
3.57238e-61
2.4599e-61
1.17383e-61
-1.58485e-62
-1.41481e-61
-2.49943e-61
-3.35694e-61
-3.97511e-61
-4.37644e-61
-4.60153e-61
-4.68792e-61
8.28064e-63
9.2466e-63
6.96601e-63
1.61418e-63
-5.64975e-63
-1.36086e-62
-2.10504e-62
-2.93231e-62
-3.82321e-62
-4.45612e-62
-4.85109e-62
-4.97994e-62
-4.75158e-62
-4.13832e-62
-3.10379e-62
-1.66455e-62
1.79478e-63
2.44995e-62
5.08331e-62
8.02457e-62
1.12285e-61
1.45842e-61
1.79497e-61
2.11596e-61
2.40042e-61
2.62328e-61
2.75956e-61
2.78545e-61
2.67974e-61
2.43033e-61
2.03801e-61
1.51719e-61
8.97157e-62
2.19575e-62
-4.67799e-62
-1.11782e-61
-1.69118e-61
-2.16245e-61
-2.52165e-61
-2.77214e-61
-2.92524e-61
-2.99197e-61
-6.90404e-62
-5.88447e-62
-5.9879e-62
-6.25911e-62
-7.71189e-62
-9.46262e-62
-1.08107e-61
-1.23479e-61
-1.29495e-61
-1.1882e-61
-9.0378e-62
-3.38995e-62
5.10506e-62
1.64131e-61
2.99128e-61
4.40909e-61
5.70355e-61
6.59521e-61
6.74498e-61
5.80443e-61
3.45382e-61
-5.23933e-62
-6.17016e-61
-1.32842e-60
-2.13869e-60
-2.97214e-60
-3.73227e-60
-4.31445e-60
-4.62201e-60
-4.58442e-60
-4.17343e-60
-3.41177e-60
-2.37193e-60
-1.16417e-60
8.42969e-62
1.25361e-60
2.25239e-60
3.03063e-60
3.5814e-60
3.93121e-60
4.1226e-60
4.19366e-60
-2.83156e-61
-2.64737e-61
-2.32243e-61
-2.00344e-61
-1.71533e-61
-1.30177e-61
-6.29961e-62
-1.59137e-62
3.44528e-62
1.40577e-61
2.71178e-61
4.34368e-61
6.41811e-61
8.85446e-61
1.14194e-60
1.37694e-60
1.53312e-60
1.53649e-60
1.3011e-60
7.35738e-61
-2.37626e-61
-1.66747e-60
-3.54998e-60
-5.81127e-60
-8.2982e-60
-1.07819e-59
-1.29742e-59
-1.45639e-59
-1.52695e-59
-1.48913e-59
-1.33548e-59
-1.07393e-59
-7.2739e-60
-3.30093e-60
7.86385e-61
4.61596e-60
7.90216e-60
1.04863e-59
1.23415e-59
1.35432e-59
1.42174e-59
1.44767e-59
-2.67933e-61
-1.61596e-61
-7.78203e-62
1.15527e-61
3.02241e-61
5.42382e-61
9.02842e-61
1.26201e-60
1.53441e-60
1.73318e-60
1.79624e-60
1.67486e-60
1.34541e-60
7.79014e-61
6.08703e-63
-9.32825e-61
-1.97495e-60
-3.01703e-60
-3.91996e-60
-4.51777e-60
-4.66779e-60
-4.24339e-60
-3.15967e-60
-1.4265e-60
8.31516e-61
3.39141e-60
5.96452e-60
8.20414e-60
9.76384e-60
1.03858e-59
9.95593e-60
8.52421e-60
6.30209e-60
3.61918e-60
8.4977e-61
-1.66881e-60
-3.70293e-60
-5.15442e-60
-6.0538e-60
-6.52278e-60
-6.71465e-60
-6.75674e-60
2.35711e-60
2.06194e-60
1.91964e-60
2.12625e-60
2.38179e-60
2.71499e-60
3.25736e-60
3.65361e-60
3.66076e-60
3.37936e-60
2.26389e-60
1.97799e-61
-2.8891e-60
-7.00312e-60
-1.18955e-59
-1.7085e-59
-2.17696e-59
-2.48489e-59
-2.49799e-59
-2.07626e-59
-1.0872e-59
5.63423e-60
2.89491e-59
5.82538e-59
9.15684e-59
1.25767e-58
1.56829e-58
1.80357e-58
1.92303e-58
1.8976e-58
1.71624e-58
1.38965e-58
9.49523e-59
4.43126e-59
-7.57389e-60
-5.57212e-59
-9.64412e-59
-1.27847e-58
-1.49852e-58
-1.63699e-58
-1.71224e-58
-1.74012e-58
8.36938e-60
8.20307e-60
7.30054e-60
5.25629e-60
2.66014e-60
1.30606e-60
-3.01113e-61
-3.63162e-60
-7.01908e-60
-9.88157e-60
-1.36514e-59
-1.79721e-59
-2.25551e-59
-2.73579e-59
-3.1813e-59
-3.50911e-59
-3.58769e-59
-3.23308e-59
-2.2654e-59
-4.83974e-60
2.29536e-59
6.15498e-59
1.10547e-58
1.6792e-58
2.29717e-58
2.90091e-58
3.41978e-58
3.77938e-58
3.91245e-58
3.77284e-58
3.34672e-58
2.65722e-58
1.76317e-58
7.50416e-59
-2.83954e-59
-1.24953e-58
-2.07772e-58
-2.73078e-58
-3.20271e-58
-3.51175e-58
-3.68784e-58
-3.75722e-58
7.91056e-61
2.29615e-60
9.5056e-61
-5.53208e-60
-1.437e-59
-2.42014e-59
-3.57199e-59
-4.87153e-59
-5.9031e-59
-6.49526e-59
-6.42222e-59
-5.39689e-59
-3.29189e-59
-5.09665e-61
4.20812e-59
9.17831e-59
1.43922e-58
1.90225e-58
2.20564e-58
2.24503e-58
1.90895e-58
1.11044e-58
-1.86379e-59
-1.95273e-58
-4.07429e-58
-6.34782e-58
-8.49712e-58
-1.0218e-57
-1.12262e-57
-1.13088e-57
-1.03774e-57
-8.49761e-58
-5.88156e-58
-2.84832e-58
2.42536e-59
3.0653e-58
5.39049e-58
7.11653e-58
8.26349e-58
8.93608e-58
9.27057e-58
9.38002e-58
-8.10552e-59
-7.57658e-59
-6.88827e-59
-6.65157e-59
-7.03749e-59
-7.65984e-59
-7.89644e-59
-8.57621e-59
-8.73758e-59
-6.52538e-59
-2.27099e-59
4.71366e-59
1.51867e-58
2.8878e-58
4.49806e-58
6.18105e-58
7.64004e-58
8.51008e-58
8.31107e-58
6.49947e-58
2.60989e-58
-3.67617e-58
-1.24423e-57
-2.33808e-57
-3.57412e-57
-4.83482e-57
-5.96968e-57
-6.81428e-57
-7.2189e-57
-7.07808e-57
-6.35508e-57
-5.09572e-57
-3.42438e-57
-1.52201e-57
4.09009e-58
2.18485e-57
3.67333e-57
4.81103e-57
5.60135e-57
6.09521e-57
6.36271e-57
6.46243e-57
-2.41056e-58
-2.38532e-58
-2.05726e-58
-1.34035e-58
-4.20218e-59
5.90823e-59
1.67115e-58
2.92591e-58
4.33812e-58
5.5712e-58
6.61492e-58
7.4128e-58
7.83006e-58
7.75147e-58
7.16908e-58
5.84605e-58
3.62375e-58
5.81459e-59
-3.56612e-58
-8.92569e-58
-1.52893e-57
-2.25521e-57
-3.04395e-57
-3.83642e-57
-4.57614e-57
-5.19839e-57
-5.62689e-57
-5.78819e-57
-5.64076e-57
-5.16944e-57
-4.37955e-57
-3.31482e-57
-2.05165e-57
-6.81767e-58
6.95742e-58
1.98761e-57
3.12151e-57
4.05322e-57
4.76581e-57
5.26453e-57
5.56895e-57
5.69912e-57
1.24451e-58
1.08185e-58
1.60089e-58
2.79868e-58
5.33423e-58
8.84367e-58
1.29435e-57
1.72259e-57
2.07529e-57
2.20972e-57
2.06124e-57
1.51781e-57
4.82809e-58
-1.05247e-57
-3.02214e-57
-5.29273e-57
-7.57334e-57
-9.44644e-57
-1.04128e-56
-9.87785e-57
-7.25408e-57
-2.10966e-57
5.7434e-57
1.6115e-56
2.83058e-56
4.11388e-56
5.30648e-56
6.23543e-56
6.73721e-56
6.694e-56
6.06329e-56
4.88933e-56
3.29963e-56
1.48282e-56
-3.51203e-57
-2.0155e-56
-3.38097e-56
-4.39307e-56
-5.06716e-56
-5.46594e-56
-5.66821e-56
-5.73771e-56
3.04641e-57
2.78036e-57
2.38344e-57
2.1435e-57
1.97761e-57
1.7166e-57
1.41004e-57
1.02693e-57
5.67379e-58
-4.4458e-58
-2.09144e-57
-4.36578e-57
-7.4623e-57
-1.13044e-56
-1.56261e-56
-1.98658e-56
-2.32222e-56
-2.45134e-56
-2.22269e-56
-1.48973e-56
-1.16016e-57
1.99789e-56
4.85769e-56
8.35254e-56
1.22405e-55
1.61425e-55
1.95826e-55
2.20531e-55
2.31006e-55
2.24123e-55
1.98983e-55
1.57324e-55
1.03308e-55
4.27811e-56
-1.78684e-56
-7.2962e-56
-1.18553e-55
-1.52925e-55
-1.7644e-55
-1.90878e-55
-1.98543e-55
-2.01358e-55
7.12738e-57
6.97149e-57
5.69306e-57
3.19325e-57
-4.78715e-58
-4.87751e-57
-1.0157e-56
-1.61837e-56
-2.19114e-56
-2.64813e-56
-2.93297e-56
-2.93898e-56
-2.59239e-56
-1.8477e-56
-6.83534e-57
8.72067e-57
2.69984e-56
4.64545e-56
6.48297e-56
7.88398e-56
8.50652e-56
8.03758e-56
6.24125e-56
3.04869e-56
-1.38427e-56
-6.64535e-56
-1.20842e-55
-1.69009e-55
-2.02991e-55
-2.16492e-55
-2.06295e-55
-1.7327e-55
-1.22335e-55
-6.12999e-56
1.00253e-57
5.67392e-56
1.00707e-55
1.31119e-55
1.49287e-55
1.58384e-55
1.61969e-55
1.62707e-55
-1.17928e-56
-1.06044e-56
-1.07104e-56
-1.34564e-56
-1.94423e-56
-2.9196e-56
-4.16492e-56
-5.29857e-56
-6.10144e-56
-6.27809e-56
-5.27273e-56
-2.73629e-56
1.58834e-56
7.78413e-56
1.56305e-55
2.44417e-55
3.30175e-55
3.96148e-55
4.19677e-55
3.75175e-55
2.37802e-55
-1.15997e-56
-3.80494e-55
-8.58764e-55
-1.41457e-54
-1.99379e-54
-2.52495e-54
-2.92893e-54
-3.13288e-54
-3.08484e-54
-2.76677e-54
-2.2017e-54
-1.45142e-54
-6.04784e-55
2.40889e-55
1.00043e-54
1.61671e-54
2.06751e-54
2.36273e-54
2.53363e-54
2.61813e-54
2.64679e-54
-1.13948e-55
-1.06657e-55
-9.17556e-56
-7.32281e-56
-4.92803e-56
-2.4123e-56
7.72949e-57
4.9011e-56
9.42321e-56
1.45711e-55
2.09152e-55
2.76482e-55
3.4796e-55
4.1823e-55
4.77958e-55
5.13829e-55
5.06991e-55
4.34064e-55
2.68424e-55
-1.614e-56
-4.36723e-55
-9.9744e-55
-1.68633e-54
-2.46612e-54
-3.27407e-54
-4.03137e-54
-4.64495e-54
-5.01809e-54
-5.07315e-54
-4.76728e-54
-4.10293e-54
-3.1295e-54
-1.93791e-54
-6.46194e-55
6.19687e-55
1.74901e-54
2.6672e-54
3.34504e-54
3.79452e-54
4.05699e-54
4.18655e-54
4.23123e-54
-1.92187e-55
-1.84995e-55
-1.47676e-55
-6.76266e-56
6.53604e-56
2.46672e-55
4.6464e-55
7.08892e-55
9.38326e-55
1.09585e-54
1.15348e-54
1.05235e-54
7.4878e-55
2.19422e-55
-5.36714e-55
-1.48153e-54
-2.52534e-54
-3.52622e-54
-4.28582e-54
-4.55601e-54
-4.07953e-54
-2.634e-54
-7.71731e-56
3.58414e-54
8.13518e-54
1.31433e-53
1.79889e-53
2.19444e-53
2.43097e-53
2.45615e-53
2.24737e-53
1.81911e-53
1.22278e-53
5.36191e-54
-1.54364e-54
-7.73484e-54
-1.27167e-53
-1.63133e-53
-1.86312e-53
-1.99523e-53
-2.05997e-53
-2.08204e-53
7.3587e-55
7.11999e-55
6.75544e-55
6.22334e-55
6.89629e-55
8.79235e-55
1.0539e-54
1.19153e-54
1.24336e-54
1.00345e-54
4.04688e-55
-6.31197e-55
-2.20217e-54
-4.28523e-54
-6.78228e-54
-9.44557e-54
-1.1842e-53
-1.33703e-53
-1.32517e-53
-1.06626e-53
-4.80222e-54
4.94193e-54
1.871e-53
3.60071e-53
5.56589e-53
7.57265e-53
9.36827e-53
1.06812e-52
1.12655e-52
1.09501e-52
9.6861e-53
7.56851e-53
4.82409e-53
1.77129e-53
-1.24532e-53
-3.92667e-53
-6.07435e-53
-7.61655e-53
-8.59816e-53
-9.14084e-53
-9.3907e-53
-9.46962e-53
4.27387e-54
4.19457e-54
3.80839e-54
2.60295e-54
1.25322e-54
-2.89095e-55
-2.74097e-54
-5.13173e-54
-7.51492e-54
-1.03781e-53
-1.28498e-53
-1.43946e-53
-1.49227e-53
-1.39227e-53
-1.10701e-53
-6.13287e-54
8.46252e-55
9.7372e-54
1.99486e-53
3.02042e-53
3.92765e-53
4.56706e-53
4.76005e-53
4.38448e-53
3.40567e-53
1.87337e-53
-2.96676e-55
-2.01362e-53
-3.76077e-53
-4.99473e-53
-5.51061e-53
-5.25202e-53
-4.33652e-53
-2.98552e-53
-1.45832e-53
4.12147e-56
1.24499e-53
2.21609e-53
2.94354e-53
3.47506e-53
3.83535e-53
4.00296e-53
3.02466e-54
3.38557e-54
2.26865e-54
5.00878e-55
-3.80971e-54
-1.03593e-53
-1.79847e-53
-2.55819e-53
-3.25882e-53
-3.66544e-53
-3.57726e-53
-2.81194e-53
-1.17104e-53
1.42124e-53
4.94074e-53
9.18119e-53
1.36532e-52
1.76256e-52
2.00783e-52
1.97634e-52
1.54298e-52
5.99481e-53
-9.16408e-53
-2.98373e-52
-5.47694e-52
-8.15914e-52
-1.0696e-51
-1.27024e-51
-1.38127e-51
-1.37566e-51
-1.24265e-51
-9.91795e-52
-6.51978e-52
-2.65596e-52
1.20641e-52
4.65994e-52
7.43685e-52
9.44288e-52
1.07382e-51
1.14786e-51
1.18428e-51
1.19696e-51
-4.80271e-53
-4.08051e-53
-3.24263e-53
-3.10906e-53
-2.78258e-53
-2.28759e-53
-1.29034e-53
-7.77151e-54
1.13031e-53
4.01201e-53
6.85148e-53
1.06472e-52
1.53508e-52
2.01948e-52
2.46852e-52
2.81844e-52
2.94774e-52
2.73483e-52
2.02832e-52
7.09214e-53
-1.28581e-52
-4.00106e-52
-7.35389e-52
-1.11088e-51
-1.49541e-51
-1.84898e-51
-2.12427e-51
-2.27802e-51
-2.27707e-51
-2.10347e-51
-1.76094e-51
-1.27485e-51
-6.89795e-52
-6.61259e-53
5.33086e-52
1.05413e-51
1.4595e-51
1.73446e-51
1.88865e-51
1.95107e-51
1.9606e-51
1.95503e-51
-1.62977e-52
-1.51445e-52
-1.30344e-52
-9.23704e-53
-2.6248e-53
5.83082e-53
1.48461e-52
2.75405e-52
4.1055e-52
5.16257e-52
5.85548e-52
5.98443e-52
5.21921e-52
3.3589e-52
3.01014e-53
-3.9645e-52
-9.10276e-52
-1.45077e-51
-1.93269e-51
-2.22715e-51
-2.19303e-51
-1.69393e-51
-6.19192e-52
1.06137e-51
3.2703e-51
5.81972e-51
8.40235e-51
1.06232e-50
1.20918e-50
1.25005e-50
1.16979e-50
9.73803e-51
6.8724e-51
3.49479e-51
4.85932e-53
-3.0816e-51
-5.64962e-51
-7.57265e-51
-8.90099e-51
-9.75349e-51
-1.02482e-50
-1.04516e-50
6.49979e-53
1.45376e-52
1.05227e-52
1.98771e-52
2.42529e-52
3.43541e-52
5.49645e-52
6.80439e-52
7.31396e-52
7.26197e-52
4.98862e-52
5.85304e-53
-6.30206e-52
-1.56368e-51
-2.71168e-51
-3.98609e-51
-5.1892e-51
-6.06873e-51
-6.28328e-51
-5.44828e-51
-3.18421e-51
8.07529e-52
6.61786e-51
1.40903e-50
2.27518e-50
3.17485e-50
3.99497e-50
4.61252e-50
4.91017e-50
4.80505e-50
4.26985e-50
3.33955e-50
2.11285e-50
7.3471e-51
-6.36286e-51
-1.86086e-50
-2.84437e-50
-3.54989e-50
-3.9957e-50
-4.23787e-50
-4.34569e-50
-4.37841e-50
2.28379e-51
2.17353e-51
1.98643e-51
1.50205e-51
1.00339e-51
3.82361e-52
-5.63248e-52
-1.67302e-51
-2.88351e-51
-4.51128e-51
-5.95939e-51
-7.06586e-51
-7.75465e-51
-7.56755e-51
-6.29886e-51
-3.71747e-51
9.77929e-53
5.0437e-51
1.07065e-50
1.60038e-50
1.98755e-50
2.11565e-50
1.85315e-50
1.11897e-50
-9.29418e-52
-1.70461e-50
-3.51778e-50
-5.25712e-50
-6.65055e-50
-7.44812e-50
-7.48684e-50
-6.7731e-50
-5.46024e-50
-3.78997e-50
-2.02633e-50
-3.86867e-51
1.00962e-50
2.14344e-50
3.05061e-50
3.76507e-50
4.27722e-50
4.52212e-50
3.54755e-51
4.00696e-51
4.10744e-51
2.04018e-51
-5.01815e-52
-3.6199e-51
-6.89701e-51
-1.10425e-50
-1.49854e-50
-1.72744e-50
-1.82829e-50
-1.59361e-50
-9.31252e-51
1.44951e-51
1.72925e-50
3.72439e-50
5.90159e-50
7.97361e-50
9.40032e-50
9.54249e-50
7.73187e-50
3.2811e-50
-4.25314e-50
-1.48368e-49
-2.79125e-49
-4.23213e-49
-5.63204e-49
-6.78288e-49
-7.4771e-49
-7.55608e-49
-6.95248e-49
-5.70637e-49
-3.96257e-49
-1.94434e-49
9.80515e-51
1.94905e-49
3.46824e-49
4.60386e-49
5.38129e-49
5.86961e-49
6.14313e-49
6.25207e-49
-1.7982e-50
-1.67879e-50
-1.47164e-50
-1.53999e-50
-1.43641e-50
-1.12929e-50
-1.02606e-50
-5.12815e-51
6.54411e-51
1.6534e-50
3.16415e-50
5.34073e-50
7.24588e-50
9.03541e-50
1.03863e-49
1.08378e-49
1.0161e-49
7.85029e-50
3.65179e-50
-2.1282e-50
-9.36322e-50
-1.77172e-49
-2.62993e-49
-3.40284e-49
-4.00342e-49
-4.3691e-49
-4.45431e-49
-4.2289e-49
-3.71195e-49
-2.97541e-49
-2.0652e-49
-9.98582e-50
2.01628e-50
1.47969e-49
2.75635e-49
3.93224e-49
4.8896e-49
5.53357e-49
5.83387e-49
5.84737e-49
5.71086e-49
5.60129e-49
-8.70695e-50
-8.75731e-50
-7.60222e-50
-5.94303e-50
-3.06978e-50
1.22071e-50
6.00354e-50
1.14852e-49
1.77811e-49
2.3705e-49
2.77841e-49
2.88688e-49
2.52531e-49
1.55455e-49
-1.1525e-50
-2.46716e-49
-5.32522e-49
-8.3246e-49
-1.08167e-48
-1.19419e-48
-1.07038e-48
-6.0998e-49
2.61283e-49
1.56425e-48
3.24345e-48
5.15461e-48
7.07096e-48
8.70807e-48
9.77534e-48
1.00492e-47
9.42939e-48
7.96643e-48
5.85514e-48
3.3922e-48
8.99643e-49
-1.35602e-48
-3.21419e-48
-4.6307e-48
-5.64928e-48
-6.34689e-48
-6.7836e-48
-6.97512e-48
6.73989e-50
1.99447e-50
2.57104e-50
1.99756e-50
9.58616e-50
1.69064e-49
2.20212e-49
2.807e-49
3.1223e-49
2.3443e-49
9.81354e-50
-7.92903e-50
-3.93077e-49
-7.78825e-49
-1.22049e-48
-1.67799e-48
-2.07254e-48
-2.29552e-48
-2.21949e-48
-1.68144e-48
-5.23273e-49
1.35505e-48
3.99293e-48
7.33096e-48
1.11614e-47
1.51376e-47
1.8798e-47
2.16188e-47
2.31262e-47
2.29611e-47
2.0952e-47
1.7189e-47
1.20406e-47
6.08485e-48
-2.46599e-50
-5.68235e-48
-1.04387e-47
-1.40698e-47
-1.65781e-47
-1.81293e-47
-1.89564e-47
-1.92663e-47
1.18109e-48
1.10802e-48
1.00655e-48
8.07541e-49
5.9321e-49
2.72715e-49
-3.13566e-49
-8.56484e-49
-1.4986e-48
-2.32612e-48
-3.07876e-48
-3.55533e-48
-3.61716e-48
-3.03855e-48
-1.64128e-48
6.02046e-49
3.59683e-48
7.01941e-48
1.01918e-47
1.22207e-47
1.19902e-47
8.3225e-48
3.23076e-49
-1.23815e-47
-2.93786e-47
-4.92208e-47
-6.94307e-47
-8.68883e-47
-9.84861e-47
-1.01844e-46
-9.59333e-47
-8.1417e-47
-6.05387e-47
-3.65539e-47
-1.28382e-47
8.00487e-48
2.46767e-47
3.71722e-47
4.62703e-47
5.28209e-47
5.72264e-47
5.92715e-47
2.44344e-48
1.6664e-48
1.63461e-48
6.55666e-49
-7.26653e-50
-1.26539e-48
-3.27199e-48
-4.64007e-48
-6.06846e-48
-7.17342e-48
-6.59593e-48
-4.33972e-48
-6.57282e-49
5.42192e-48
1.36853e-47
2.33514e-47
3.33391e-47
4.14104e-47
4.44645e-47
3.86443e-47
1.973e-47
-1.59826e-47
-7.07447e-47
-1.44176e-46
-2.32402e-46
-3.27664e-46
-4.18779e-46
-4.92778e-46
-5.37006e-46
-5.41727e-46
-5.0293e-46
-4.23667e-46
-3.13478e-46
-1.86372e-46
-5.7627e-47
5.96675e-47
1.5718e-46
2.32092e-46
2.85925e-46
3.22225e-46
3.44274e-46
3.53688e-46
-1.1122e-47
-1.03691e-47
-9.51543e-48
-7.91309e-48
-7.31217e-48
-5.63655e-48
-2.84867e-48
8.20218e-49
7.25953e-48
1.64845e-47
2.62203e-47
3.56727e-47
4.29489e-47
4.55444e-47
4.11124e-47
2.81876e-47
4.8824e-48
-2.71036e-47
-6.41906e-47
-1.023e-46
-1.33163e-46
-1.47687e-46
-1.37966e-46
-9.77225e-47
-2.67435e-47
6.78948e-47
1.73239e-46
2.70307e-46
3.38788e-46
3.63656e-46
3.38313e-46
2.67493e-46
1.66851e-46
5.74347e-47
-4.13363e-47
-1.16808e-46
-1.65584e-46
-1.93476e-46
-2.10504e-46
-2.24299e-46
-2.36627e-46
-2.43505e-46
-3.81967e-47
-4.60284e-47
-4.18435e-47
-2.82961e-47
-1.09644e-47
1.37174e-47
3.38682e-47
6.30806e-47
9.04136e-47
1.06703e-46
1.15523e-46
1.00006e-46
5.318e-47
-2.98304e-47
-1.50321e-46
-3.00689e-46
-4.66234e-46
-6.09968e-46
-6.83948e-46
-6.21996e-46
-3.5081e-46
1.88104e-46
1.04035e-45
2.20751e-45
3.62577e-45
5.16816e-45
6.65142e-45
7.8546e-45
8.56501e-45
8.62751e-45
7.98309e-45
6.6905e-45
4.91822e-45
2.90553e-45
9.049e-46
-8.77962e-46
-2.32606e-45
-3.41747e-45
-4.19718e-45
-4.73109e-45
-5.06667e-45
-5.21509e-45
6.75805e-47
5.24401e-47
4.73726e-47
6.46662e-47
8.61697e-47
9.35652e-47
1.23076e-46
1.17179e-46
4.61836e-47
-2.83956e-47
-1.43606e-46
-3.29294e-46
-5.26357e-46
-7.25931e-46
-8.93514e-46
-9.82356e-46
-9.28689e-46
-6.93667e-46
-2.05934e-46
6.1114e-46
1.75861e-45
3.22949e-45
4.99483e-45
6.92834e-45
8.89083e-45
1.07482e-44
1.2292e-44
1.33272e-44
1.37518e-44
1.35314e-44
1.26544e-44
1.1175e-44
9.22062e-45
6.97801e-45
4.64472e-45
2.39746e-45
3.8887e-46
-1.27495e-45
-2.5465e-45
-3.43718e-45
-3.97913e-45
-4.20744e-45
6.70496e-46
6.98893e-46
6.19818e-46
4.31088e-46
1.95032e-46
6.34221e-48
-2.54507e-46
-6.34616e-46
-1.00475e-45
-1.33595e-45
-1.56065e-45
-1.53631e-45
-1.17688e-45
-3.2905e-46
1.00412e-45
2.83747e-45
4.98698e-45
7.05548e-45
8.52782e-45
8.6049e-45
6.44518e-45
1.30299e-45
-7.47866e-45
-1.99941e-44
-3.55002e-44
-5.26185e-44
-6.92669e-44
-8.28363e-44
-9.07584e-44
-9.11625e-44
-8.33115e-44
-6.78874e-44
-4.69136e-44
-2.32751e-44
-1.86979e-47
2.03858e-44
3.65839e-44
4.84304e-44
5.66181e-44
6.20838e-44
6.54943e-44
6.70106e-44
1.18144e-46
3.87674e-46
2.87656e-46
-2.78798e-46
-9.71384e-46
-1.56637e-45
-2.31443e-45
-2.91605e-45
-2.65628e-45
-1.50884e-45
2.16608e-46
3.17677e-45
7.34939e-45
1.21688e-44
1.71865e-44
2.13891e-44
2.34612e-44
2.20214e-44
1.44571e-44
-1.43832e-45
-2.68089e-44
-6.31703e-44
-1.1032e-43
-1.66133e-43
-2.27033e-43
-2.87297e-43
-3.39992e-43
-3.78437e-43
-3.96598e-43
-3.90674e-43
-3.60269e-43
-3.08318e-43
-2.40866e-43
-1.65957e-43
-9.16905e-44
-2.46496e-44
3.10274e-44
7.41403e-44
1.0575e-43
1.27749e-43
1.41532e-43
1.47492e-43
-9.12772e-45
-8.71109e-45
-7.41865e-45
-6.36471e-45
-4.87702e-45
-2.55846e-45
-3.35749e-46
2.69685e-45
7.58724e-45
1.30719e-44
1.84661e-44
2.3563e-44
2.55134e-44
2.33204e-44
1.5403e-44
-1.58003e-46
-2.30964e-44
-5.22854e-44
-8.51738e-44
-1.16398e-43
-1.39471e-43
-1.47064e-43
-1.32235e-43
-9.09364e-44
-2.34523e-44
6.42956e-44
1.59801e-43
2.46057e-43
3.04512e-43
3.1837e-43
2.77279e-43
1.80916e-43
3.98201e-44
-1.27163e-43
-2.97115e-43
-4.48933e-43
-5.69006e-43
-6.53633e-43
-7.0748e-43
-7.39241e-43
-7.56882e-43
-7.64246e-43
-1.88527e-44
-1.52956e-44
-9.51915e-45
-2.83819e-45
7.66744e-45
2.19123e-44
3.66931e-44
4.39151e-44
4.57252e-44
3.66208e-44
7.35263e-45
-3.98111e-44
-1.03907e-43
-1.82647e-43
-2.66453e-43
-3.40103e-43
-3.82237e-43
-3.64781e-43
-2.53021e-43
-1.45792e-44
3.77399e-43
9.39988e-43
1.66744e-42
2.5262e-42
3.45567e-42
4.36917e-42
5.16172e-42
5.72586e-42
5.97029e-42
5.83707e-42
5.31535e-42
4.44771e-42
3.32637e-42
2.07765e-42
8.37652e-43
-2.76352e-43
-1.19077e-42
-1.88413e-42
-2.37649e-42
-2.70669e-42
-2.90736e-42
-2.99204e-42
1.15733e-43
1.04265e-43
9.35445e-44
8.86791e-44
8.97604e-44
9.39903e-44
8.67557e-44
5.35209e-44
-4.27555e-45
-1.0417e-43
-2.41684e-43
-4.05025e-43
-5.78016e-43
-7.16559e-43
-7.85339e-43
-7.28296e-43
-4.83906e-43
-6.02498e-45
7.49492e-43
1.80038e-42
3.12885e-42
4.68053e-42
6.35548e-42
8.01763e-42
9.51591e-42
1.07008e-41
1.14456e-41
1.16821e-41
1.14281e-41
1.07894e-41
9.93794e-42
9.07558e-42
8.38477e-42
7.97213e-42
7.83664e-42
7.8906e-42
8.00587e-42
8.06659e-42
8.01723e-42
7.87935e-42
7.72871e-42
7.64354e-42
3.7523e-43
3.98472e-43
3.16385e-43
1.7224e-43
-2.33684e-44
-2.29245e-43
-3.84861e-43
-5.21645e-43
-5.71682e-43
-4.03769e-43
-7.05203e-44
4.19228e-43
1.18594e-42
2.08651e-42
2.99402e-42
3.7762e-42
4.1895e-42
3.94053e-42
2.76605e-42
4.01045e-43
-3.31485e-42
-8.33038e-42
-1.44232e-41
-2.12012e-41
-2.81032e-41
-3.44787e-41
-3.97024e-41
-4.32118e-41
-4.45027e-41
-4.31201e-41
-3.87233e-41
-3.12105e-41
-2.08283e-41
-8.25934e-42
5.31937e-42
1.8414e-41
2.96944e-41
3.8375e-41
4.43275e-41
4.79399e-41
4.98254e-41
5.05076e-41
-1.17058e-42
-1.09819e-42
-1.08299e-42
-1.25243e-42
-1.61705e-42
-1.97052e-42
-2.16305e-42
-1.92123e-42
-8.68091e-43
1.04263e-42
3.96538e-42
7.88799e-42
1.21155e-41
1.61234e-41
1.89375e-41
1.91902e-41
1.54409e-41
6.23098e-42
-9.72022e-42
-3.32429e-41
-6.43851e-41
-1.02186e-40
-1.44552e-40
-1.88358e-40
-2.29704e-40
-2.64313e-40
-2.88289e-40
-2.98846e-40
-2.94879e-40
-2.77484e-40
-2.49807e-40
-2.16333e-40
-1.82006e-40
-1.51161e-40
-1.26386e-40