/*--------------------------------*- C++ -*----------------------------------*\
| =========                 |                                                 |
| \\      /  F ield         | OpenFOAM: The Open Source CFD Toolbox           |
|  \\    /   O peration     | Version:  2412                                  |
|   \\  /    A nd           | Website:  www.openfoam.com                      |
|    \\/     M anipulation  |                                                 |
\*---------------------------------------------------------------------------*/
FoamFile
{
    version     2.0;
    format      ascii;
    arch        "LSB;label=32;scalar=64";
    class       volVectorField;
    location    "0.013";
    object      ddt0(rho,U);
}
// * * * * * * * * * * * * * * * * * * * * * * * * * * * * * * * * * * * * * //

dimensions      [1 -2 -2 0 0 0 0];

internalField   nonuniform List<vector> 
8988
(
(-67.3531 -61.2258 0)
(-12.9553 -75.2121 0)
(11.8034 88.3703 0)
(74.2409 -130.062 0)
(24.5462 -6.25964 0)
(-9.50322 79.3338 0)
(-38.6682 103.429 0)
(25.0742 -54.6635 0)
(10.193 -54.5602 0)
(14.4627 -24.2793 0)
(4.28574 9.11179 0)
(1.72055 15.7867 0)
(11.0972 -2.64287 0)
(8.98035 -8.45324 0)
(6.25011 -3.85142 0)
(3.32665 2.06971 0)
(3.59386 0.119069 0)
(5.01174 -2.91555 0)
(4.91479 -3.72359 0)
(4.6496 -4.3348 0)
(4.45746 -4.75148 0)
(4.34142 -4.47673 0)
(4.12014 -3.81403 0)
(3.63978 -3.62437 0)
(3.04955 -3.7701 0)
(2.34252 -4.95414 0)
(1.67228 -4.05803 0)
(0.744897 -3.44182 0)
(-0.0246022 -3.43566 0)
(-0.290186 -3.60732 0)
(-0.531259 -4.4607 0)
(-0.491828 -5.21713 0)
(-0.681822 -5.49083 0)
(-1.24135 -5.48522 0)
(-2.12885 -4.91621 0)
(-2.76532 -4.48935 0)
(-3.42464 -4.08265 0)
(-4.05356 -3.63305 0)
(-4.61759 -3.04275 0)
(-5.09998 -2.30148 0)
(-5.53796 -1.41414 0)
(-5.58935 -0.475623 0)
(-165.892 -332.136 0)
(13.0495 -369.302 0)
(249.236 -278.67 0)
(135.772 366.012 0)
(-461.13 275.228 0)
(460.215 -395.748 0)
(-70.016 -231.517 0)
(-115.686 408.633 0)
(-113.855 148.753 0)
(68.3319 -99.2086 0)
(84.081 -174.758 0)
(15.9749 -35.9462 0)
(-69.3574 108.678 0)
(-5.78739 20.5423 0)
(16.3707 -43.4491 0)
(13.2541 2.38832 0)
(-6.01201 17.8695 0)
(3.63531 8.30856 0)
(5.77529 -2.55213 0)
(3.46469 -5.8631 0)
(2.86669 -2.24588 0)
(3.192 -1.89053 0)
(2.84549 -3.58904 0)
(1.26923 -1.66671 0)
(0.477297 -3.64417 0)
(0.897966 -1.19794 0)
(1.05233 -2.48484 0)
(0.387433 -0.876898 0)
(-0.031094 -0.135168 0)
(0.00380304 -0.580557 0)
(0.0447207 -1.6442 0)
(-0.0338183 -2.77423 0)
(-1.01798 -2.91961 0)
(-2.34544 -2.43838 0)
(-3.08396 -2.38047 0)
(-3.78196 -2.55624 0)
(-4.22937 -2.67931 0)
(-4.43823 -2.6579 0)
(-4.4929 -2.47455 0)
(-4.53659 -2.10182 0)
(-4.68795 -1.47623 0)
(-4.08749 -0.649313 0)
(-150.496 -675.465 0)
(163.583 -709.592 0)
(389.627 -349.123 0)
(-171.366 144.641 0)
(-284.794 966.583 0)
(-278.697 130.032 0)
(535.986 -719.791 0)
(132.232 -308.791 0)
(-282.665 648.826 0)
(-82.6704 42.7508 0)
(149.795 -226.905 0)
(46.957 -75.1732 0)
(-78.1982 144.598 0)
(13.8646 -16.8796 0)
(16.8175 -17.4346 0)
(1.43957 14.3314 0)
(2.46051 15.3116 0)
(10.0033 3.58443 0)
(10.2599 2.62515 0)
(8.37059 5.14011 0)
(7.71681 5.51248 0)
(7.55206 6.19333 0)
(6.39427 7.28899 0)
(4.63162 8.44935 0)
(3.92018 7.72778 0)
(3.85982 7.14042 0)
(3.91773 6.80377 0)
(3.14828 8.056 0)
(2.2188 8.11402 0)
(1.74178 7.19577 0)
(1.42273 5.45109 0)
(0.916408 3.59438 0)
(-0.124909 3.01417 0)
(-1.49973 3.46395 0)
(-2.3366 3.41977 0)
(-2.71276 2.87078 0)
(-2.81689 2.31117 0)
(-2.97276 1.99656 0)
(-3.34181 1.80459 0)
(-3.5115 1.38458 0)
(-3.17744 0.860254 0)
(-2.50909 0.134795 0)
(-490.857 -251.369 0)
(315.24 626.538 0)
(41.2165 -254.057 0)
(202.05 -1318.46 0)
(-25.2162 710.953 0)
(-252.483 1058.68 0)
(-90.8053 -278.211 0)
(257.187 -814.517 0)
(214.873 111.667 0)
(-307.222 418.126 0)
(83.5621 -126.871 0)
(54.1314 -49.7676 0)
(-5.69451 42.3939 0)
(3.84499 12.0303 0)
(3.92333 11.4181 0)
(5.63762 2.25831 0)
(8.84617 2.71611 0)
(7.73386 7.74076 0)
(6.44813 10.1223 0)
(6.32621 9.65247 0)
(5.1425 12.271 0)
(3.91704 14.8518 0)
(3.18124 15.4829 0)
(2.96895 15.3253 0)
(2.9572 14.9987 0)
(3.0869 14.5691 0)
(2.78195 15.002 0)
(2.74507 16.1505 0)
(2.45527 17.1128 0)
(2.33518 17.2687 0)
(2.19148 16.8678 0)
(1.68218 16.0315 0)
(0.694713 15.5714 0)
(-0.371092 15.3209 0)
(-1.09533 14.4611 0)
(-1.43768 12.6569 0)
(-1.75871 10.7445 0)
(-2.45365 9.17262 0)
(-3.47096 6.96131 0)
(-3.59129 5.49424 0)
(-4.48998 3.57494 0)
(-3.90222 0.909185 0)
(-192.598 212.429 0)
(-184.57 1246.36 0)
(132.409 339.179 0)
(543.424 -713.503 0)
(-5.28704 -1202.84 0)
(-115.224 558.306 0)
(-375.01 1190.6 0)
(132.366 -421.191 0)
(192.913 -662.999 0)
(15.0442 319.391 0)
(-152.159 116.562 0)
(61.2871 -66.9761 0)
(22.4985 -4.75077 0)
(-3.02657 23.9994 0)
(3.14306 18.7277 0)
(10.5314 0.892354 0)
(7.90324 6.64025 0)
(5.26932 14.0376 0)
(5.16212 15.9281 0)
(6.20625 14.7712 0)
(4.65034 16.7472 0)
(3.72239 20.3481 0)
(4.00837 21.1668 0)
(4.62323 21.3872 0)
(4.96603 21.1766 0)
(4.76873 22.0248 0)
(3.88452 23.8006 0)
(3.61535 24.8119 0)
(3.59409 24.8929 0)
(3.64059 24.9564 0)
(3.35634 25.7446 0)
(2.61487 26.8302 0)
(1.56388 27.4727 0)
(0.64211 27.1632 0)
(0.0213391 25.751 0)
(-0.498474 23.2903 0)
(-1.31864 20.0499 0)
(-2.65424 16.4958 0)
(-3.70175 13.0337 0)
(-4.65343 10.2334 0)
(-5.9295 6.01848 0)
(-5.33246 1.5624 0)
(-17.7433 456.864 0)
(55.5405 1096.1 0)
(-86.7483 322.489 0)
(-331.037 -159.301 0)
(864.348 -1179.61 0)
(9.08606 -130.113 0)
(-485.944 1032.61 0)
(-231.709 160.397 0)
(404.456 -500.098 0)
(148.511 -179.447 0)
(-212.899 299.908 0)
(-5.22918 -20.7929 0)
(30.5149 38.5115 0)
(12.5568 -42.7006 0)
(20.8913 -29.4545 0)
(4.29468 53.6662 0)
(-7.06391 36.6084 0)
(13.8826 1.79975 0)
(9.70806 3.14606 0)
(5.36131 20.8983 0)
(5.66012 24.3654 0)
(5.95536 21.2743 0)
(6.92658 21.2847 0)
(6.82832 23.9905 0)
(6.83474 25.3459 0)
(6.57303 26.0674 0)
(5.7629 27.867 0)
(5.23389 29.759 0)
(5.13646 29.938 0)
(4.77047 29.9069 0)
(3.65174 31.2095 0)
(2.1328 33.3163 0)
(0.858794 34.5953 0)
(0.0645624 34.4099 0)
(-0.435497 33.1591 0)
(-0.96582 31.1239 0)
(-1.76757 28.1324 0)
(-3.23537 24.2454 0)
(-4.74691 19.6255 0)
(-6.36256 14.7722 0)
(-7.34538 8.94305 0)
(-6.91949 2.18283 0)
(449.238 506.759 0)
(-2.12926 -148.639 0)
(-646.529 -17.7159 0)
(286.847 1223.25 0)
(-243.567 -461.513 0)
(448.02 -1331.04 0)
(89.1059 207.605 0)
(-317.921 1014.16 0)
(-66.8375 -43.9944 0)
(119.224 -541.194 0)
(101.802 97.1069 0)
(-63.5932 70.5389 0)
(6.22034 90.1264 0)
(7.40119 -26.2656 0)
(51.388 -66.1559 0)
(-0.342654 -3.57506 0)
(-10.3523 89.9735 0)
(8.50719 10.97 0)
(16.6901 -14.1659 0)
(6.7786 14.4561 0)
(4.75525 27.4057 0)
(6.65823 20.8774 0)
(7.45636 18.4743 0)
(6.86454 20.4973 0)
(6.0835 24.4188 0)
(5.74219 25.3169 0)
(5.08784 25.9653 0)
(4.39206 27.8571 0)
(3.93244 29.0201 0)
(3.18073 29.6392 0)
(1.82486 31.2245 0)
(0.416936 33.3118 0)
(-0.489873 34.4764 0)
(-1.01135 34.4647 0)
(-1.56805 33.8637 0)
(-2.33277 32.8446 0)
(-3.19418 30.9717 0)
(-4.31938 27.9184 0)
(-5.6487 23.5341 0)
(-6.9017 17.8802 0)
(-8.17896 10.976 0)
(-7.01225 2.82226 0)
(235.921 -14.0682 0)
(-130.473 -966.88 0)
(195.485 -171.488 0)
(-229.547 676.036 0)
(-347.63 927.356 0)
(292.525 -395.674 0)
(93.3406 -1077.01 0)
(178.777 326.998 0)
(-456.256 514.804 0)
(131.271 -235.496 0)
(119.778 -59.8282 0)
(2.82291 -16.0594 0)
(-15.1391 122.9 0)
(-17.641 66.3208 0)
(48.2087 -104.867 0)
(18.8018 -53.0014 0)
(-2.34433 80.8947 0)
(-12.267 42.6981 0)
(19.8794 -12.5582 0)
(10.1816 -4.85414 0)
(2.04277 20.1195 0)
(4.99274 23.1291 0)
(6.35221 13.8574 0)
(6.18505 14.3674 0)
(4.67279 19.548 0)
(4.19964 22.1454 0)
(3.91611 21.8578 0)
(3.17868 23.2232 0)
(2.32983 25.4375 0)
(1.43976 26.8788 0)
(0.434669 28.3579 0)
(-0.345843 29.8636 0)
(-0.800994 30.6343 0)
(-1.22923 30.7714 0)
(-1.92975 30.727 0)
(-2.86533 30.4566 0)
(-3.80177 29.5408 0)
(-4.60168 27.6199 0)
(-5.39163 24.3407 0)
(-5.75609 19.1623 0)
(-7.16362 12.2935 0)
(-5.26731 3.44067 0)
(-169.566 -144.357 0)
(-66.6468 977.243 0)
(-29.2594 114.48 0)
(535.888 -992.534 0)
(-208.094 -295.577 0)
(26.7457 683.553 0)
(-351.112 272.347 0)
(175.499 -360.123 0)
(141.889 -83.3028 0)
(-26.6542 135.913 0)
(-46.6539 85.0151 0)
(56.0501 -131.837 0)
(13.4417 4.11316 0)
(-17.33 131.026 0)
(9.13687 -53.3614 0)
(39.726 -58.4124 0)
(-7.77948 26.9925 0)
(-14.1524 61.7478 0)
(16.7173 -6.81157 0)
(11.1092 -9.19387 0)
(0.808447 11.0163 0)
(2.79517 23.5329 0)
(5.13184 11.8429 0)
(4.96453 11.0769 0)
(3.22368 15.4184 0)
(2.64843 19.3393 0)
(2.61569 19.0253 0)
(1.94912 19.8321 0)
(1.0632 22.3521 0)
(0.426097 24.1074 0)
(-0.0520522 25.2341 0)
(-0.375577 26.2911 0)
(-0.66349 26.9731 0)
(-1.13184 27.3243 0)
(-1.81259 27.4813 0)
(-2.56602 27.2804 0)
(-3.3151 26.5199 0)
(-3.78371 24.9455 0)
(-4.06342 22.2171 0)
(-3.72419 17.719 0)
(-4.9784 11.7463 0)
(-2.3996 3.76004 0)
(185.215 505.446 0)
(-64.0513 812.909 0)
(-210.357 -123.99 0)
(-223.605 439.097 0)
(622.878 -704.203 0)
(-195.186 -602.703 0)
(5.97717 597.337 0)
(-240.865 338.458 0)
(119.591 -348.736 0)
(79.5386 -96.2909 0)
(-21.6228 189.65 0)
(-44.3121 42.7231 0)
(62.6282 -150.069 0)
(5.63374 23.0076 0)
(-25.2986 117.53 0)
(10.5069 -45.9067 0)
(19.2122 -43.0782 0)
(-5.72069 35.5007 0)
(-1.23604 33.6871 0)
(7.53873 -5.09918 0)
(4.77231 0.242292 0)
(0.634473 12.4496 0)
(1.59325 16.4335 0)
(2.53082 11.2592 0)
(2.01723 11.6024 0)
(1.26124 15.4581 0)
(1.0343 17.3563 0)
(0.778597 17.6962 0)
(0.359861 19.2466 0)
(0.0361887 21.0636 0)
(-0.161141 22.1853 0)
(-0.330401 23.0366 0)
(-0.584023 23.7584 0)
(-0.965307 24.2403 0)
(-1.38417 24.3488 0)
(-1.71911 23.9159 0)
(-2.05177 22.8976 0)
(-2.11535 21.1445 0)
(-2.03962 18.5295 0)
(-1.49149 14.633 0)
(-2.834 9.83869 0)
(0.128612 3.76672 0)
(209.186 4.96782 0)
(-172.229 -847.291 0)
(112.062 -158.072 0)
(-161.012 649.779 0)
(-360.489 567.989 0)
(434.001 -489.563 0)
(-19.8459 -524.421 0)
(-58.4932 440.738 0)
(-143.761 126.178 0)
(133.08 -231.057 0)
(13.2441 -9.06772 0)
(-51.1045 221.126 0)
(21.6895 -121.532 0)
(30.1526 -98.1912 0)
(-11.3364 106.57 0)
(-29.0295 55.4287 0)
(29.9371 -58.2814 0)
(2.55743 -27.8713 0)
(-12.4568 54.3834 0)
(2.28173 15.6767 0)
(7.35804 -7.05324 0)
(0.643053 4.64111 0)
(-1.47222 18.9614 0)
(0.524028 13.5083 0)
(1.47724 10.7534 0)
(0.434554 13.8201 0)
(0.0525291 17.1092 0)
(0.331909 17.1926 0)
(0.348244 17.6291 0)
(0.125054 19.2094 0)
(-0.0188606 20.276 0)
(-0.154436 20.8337 0)
(-0.364162 21.3273 0)
(-0.568892 21.5471 0)
(-0.704371 21.2614 0)
(-0.70768 20.3853 0)
(-0.728751 18.9474 0)
(-0.579602 16.8948 0)
(-0.443204 14.3365 0)
(-0.228126 11.1043 0)
(-1.68406 7.30155 0)
(1.16286 3.53148 0)
(-197.999 22.086 0)
(8.93673 876.644 0)
(-9.95801 239.388 0)
(350.289 -811.527 0)
(-171.759 -436.748 0)
(51.8257 641.799 0)
(-237.39 223.702 0)
(103.654 -402.726 0)
(97.7244 71.4604 0)
(-71.4689 91.0397 0)
(11.4796 -114.661 0)
(8.63677 141.162 0)
(-16.0489 -28.6808 0)
(36.1538 -100.054 0)
(-13.1389 81.5711 0)
(-31.5473 52.9123 0)
(34.1352 -52.797 0)
(-1.49052 -13.4621 0)
(-17.2334 52.8143 0)
(4.26069 9.92998 0)
(8.70053 -6.85087 0)
(-1.58709 7.47807 0)
(-2.55518 21.1734 0)
(1.04719 12.313 0)
(1.46116 11.6709 0)
(0.0520032 14.1651 0)
(0.137544 16.9448 0)
(0.857266 16.1017 0)
(0.814313 16.4866 0)
(0.490048 17.8237 0)
(0.355239 18.2807 0)
(0.18294 18.2837 0)
(-0.0443934 18.2556 0)
(-0.1689 17.8582 0)
(-0.197066 16.979 0)
(-0.112886 15.6584 0)
(-0.0846149 13.9945 0)
(-0.0378481 12.0396 0)
(-0.0917611 9.96628 0)
(-0.425335 7.72963 0)
(-1.61721 4.7708 0)
(0.500535 2.95943 0)
(416.487 574.801 0)
(-105.321 377.476 0)
(-500.69 -161.012 0)
(-129.243 644.305 0)
(537.377 -560.52 0)
(-88.1888 -565.253 0)
(-122.827 645.81 0)
(-42.6502 -37.9013 0)
(70.781 -146.52 0)
(4.40256 29.1101 0)
(-8.97882 9.76067 0)
(-16.3624 76.9406 0)
(27.9783 -74.2952 0)
(6.96791 -1.24437 0)
(-26.8796 77.2964 0)
(7.7112 -24.8543 0)
(12.3921 -13.8884 0)
(-10.9742 30.2605 0)
(-1.53346 14.2933 0)
(9.36971 -2.78547 0)
(1.35443 6.93539 0)
(-1.56352 17.3371 0)
(1.47 13.0323 0)
(2.61194 9.81126 0)
(1.19395 12.8637 0)
(0.695894 14.4252 0)
(1.45186 13.6926 0)
(1.36662 13.7157 0)
(0.91657 14.5674 0)
(0.733467 14.328 0)
(0.575467 14.0575 0)
(0.295216 13.6327 0)
(-0.0228481 12.993 0)
(-0.20901 12.1845 0)
(-0.29903 10.9979 0)
(-0.310974 9.56404 0)
(-0.395578 8.02124 0)
(-0.59774 6.70893 0)
(-0.86075 5.49745 0)
(-1.69893 4.27392 0)
(-2.29649 2.63038 0)
(-1.30077 1.96196 0)
(877.566 1038.26 0)
(-44.1757 24.202 0)
(-1100.86 106.232 0)
(-196.526 1169.55 0)
(796.881 -704.69 0)
(51.8489 -1525.9 0)
(149.725 754.185 0)
(-581.688 700.683 0)
(191.472 -470.284 0)
(69.0206 -39.0214 0)
(-79.2219 159.741 0)
(16.0124 -75.7984 0)
(21.5855 -31.073 0)
(-16.3683 68.5721 0)
(-0.00767336 -9.38364 0)
(15.4406 -17.5298 0)
(-3.43228 22.4289 0)
(0.477686 9.35801 0)
(9.11703 -2.06699 0)
(2.2031 8.95702 0)
(1.4293 12.1785 0)
(3.39174 8.61571 0)
(3.67902 6.57581 0)
(2.2854 8.9012 0)
(1.48093 10.3136 0)
(1.98469 8.94368 0)
(1.94401 8.07724 0)
(1.32776 8.52518 0)
(0.963918 8.48783 0)
(0.675237 7.91527 0)
(0.339664 7.17826 0)
(-0.0267832 6.36093 0)
(-0.380512 5.49042 0)
(-0.68857 4.55943 0)
(-0.943688 3.54731 0)
(-1.13217 2.45252 0)
(-1.39628 1.37573 0)
(-1.93633 0.610066 0)
(-2.41315 0.36924 0)
(-3.01771 0.737251 0)
(-3.45616 1.05037 0)
(-3.36224 0.920475 0)
(365.411 58.2252 0)
(-148.196 -966.405 0)
(-193.585 -87.1755 0)
(-165.657 1220.41 0)
(49.6332 -143.527 0)
(194.305 -770.032 0)
(21.1719 257.364 0)
(-199.553 296.773 0)
(108.653 -251.765 0)
(39.8688 32.7305 0)
(-44.9942 60.2138 0)
(35.9718 -80.9888 0)
(5.24663 64.6321 0)
(-15.4024 22.1288 0)
(27.915 -48.0631 0)
(4.01818 17.8248 0)
(-4.44209 20.5953 0)
(11.0098 -9.91141 0)
(4.05757 1.77527 0)
(1.44678 8.69939 0)
(4.98761 1.75181 0)
(5.34431 -0.00692206 0)
(3.11718 1.5667 0)
(2.14533 3.65723 0)
(2.5595 2.06282 0)
(2.42711 0.403737 0)
(1.52685 0.502566 0)
(0.937597 0.20433 0)
(0.688761 -0.821714 0)
(0.446393 -1.78121 0)
(0.106429 -2.55057 0)
(-0.356 -3.17912 0)
(-0.870096 -3.77226 0)
(-1.34302 -4.41194 0)
(-1.76429 -5.02916 0)
(-2.18558 -5.56456 0)
(-2.61171 -5.87822 0)
(-3.28201 -5.56913 0)
(-3.84777 -4.63038 0)
(-4.42614 -3.31851 0)
(-4.31178 -2.07797 0)
(-4.87422 0.0767375 0)
(-21.7624 495.771 0)
(-197.027 1301.71 0)
(97.7923 109.125 0)
(392.153 -223.029 0)
(-151.81 -1241.37 0)
(55.3076 579.184 0)
(-344.833 479.478 0)
(167.429 -390.795 0)
(92.2091 -64.4425 0)
(-50.2215 160.922 0)
(23.6028 -75.7082 0)
(28.0907 -17.8997 0)
(-13.5393 59.0033 0)
(20.2891 -49.4279 0)
(14.5935 -13.8864 0)
(-6.60775 22.8094 0)
(7.48196 -15.1555 0)
(6.53992 -10.123 0)
(0.205216 1.24011 0)
(6.23227 -6.84736 0)
(5.3735 -6.49886 0)
(2.78847 -7.36631 0)
(1.82168 -5.35535 0)
(2.51972 -6.87769 0)
(2.58043 -8.96644 0)
(1.54206 -8.77066 0)
(0.955657 -9.16344 0)
(1.06836 -11.0535 0)
(1.10616 -12.5691 0)
(0.786764 -13.0781 0)
(0.151509 -13.0533 0)
(-0.627766 -12.9194 0)
(-1.28417 -13.1338 0)
(-1.78096 -13.6116 0)
(-2.2368 -13.8236 0)
(-2.78512 -13.5081 0)
(-3.33546 -12.7144 0)
(-3.99789 -11.3614 0)
(-4.44154 -9.61076 0)
(-4.93458 -7.47552 0)
(-4.46673 -5.18886 0)
(-5.7761 -1.05221 0)
(647.957 1018.86 0)
(-44.3744 445.158 0)
(-856.209 -12.7926 0)
(-232.522 649.989 0)
(846.465 -548.286 0)
(-144.583 -1052.59 0)
(-15.0744 807.568 0)
(-224.355 164.137 0)
(128.046 -308.11 0)
(58.1349 33.9435 0)
(-7.25818 10.5712 0)
(11.9852 19.5525 0)
(9.44825 -19.9242 0)
(17.0994 -30.7038 0)
(-2.40388 18.2769 0)
(2.50653 -14.3095 0)
(8.60213 -19.696 0)
(-1.25552 -1.96603 0)
(2.74647 -11.8149 0)
(6.31151 -17.9046 0)
(2.89956 -14.4796 0)
(1.09003 -13.7321 0)
(1.94298 -15.4403 0)
(2.92829 -18.4338 0)
(2.2813 -18.6727 0)
(1.6408 -18.2387 0)
(1.7046 -19.3456 0)
(1.67758 -20.767 0)
(1.44131 -21.8351 0)
(1.1047 -22.7171 0)
(0.383698 -22.5789 0)
(-0.538968 -21.5733 0)
(-1.19485 -20.9802 0)
(-1.62521 -20.9161 0)
(-2.07839 -20.5352 0)
(-2.71283 -19.3821 0)
(-3.34856 -17.6722 0)
(-3.86411 -15.6334 0)
(-4.10619 -13.3739 0)
(-4.52416 -10.5335 0)
(-4.02568 -7.15979 0)
(-5.94133 -1.84411 0)
(-60.6775 -383.326 0)
(-267.093 -1309.31 0)
(504.482 186.374 0)
(-105.674 424.018 0)
(-468.723 569.163 0)
(203.772 -298.4 0)
(53.7983 -361.992 0)
(24.9839 200.976 0)
(-33.5283 82.0549 0)
(43.2445 -102.702 0)
(23.5364 12.2054 0)
(-3.96843 12.2859 0)
(14.2974 -39.8488 0)
(0.655476 10.7285 0)
(-2.34315 -11.0774 0)
(10.2002 -30.4519 0)
(-1.1462 -2.21608 0)
(0.74226 -13.1453 0)
(7.40583 -24.4812 0)
(4.61305 -18.4466 0)
(1.49159 -17.0157 0)
(2.05131 -19.9568 0)
(3.87932 -24.7125 0)
(3.55716 -25.8229 0)
(2.64336 -24.565 0)
(3.03465 -25.9451 0)
(3.3176 -27.9421 0)
(2.62355 -27.6388 0)
(1.93638 -27.187 0)
(1.40193 -27.756 0)
(0.531761 -27.7498 0)
(-0.339272 -26.9522 0)
(-0.816641 -26.3262 0)
(-1.17979 -25.7739 0)
(-1.68866 -24.7601 0)
(-2.31985 -23.1442 0)
(-2.87014 -21.0077 0)
(-3.13091 -18.451 0)
(-3.21826 -15.5242 0)
(-3.72539 -11.8698 0)
(-3.39265 -7.62802 0)
(-5.52256 -2.15676 0)
(705.537 548.794 0)
(-63.3647 -634.603 0)
(-881.057 19.0702 0)
(-166.2 1271.35 0)
(610.949 -266.571 0)
(-7.60619 -1195.18 0)
(38.4021 525.839 0)
(-282.859 284.878 0)
(90.2737 -255.196 0)
(63.7237 -10.2929 0)
(-29.9537 54.0467 0)
(10.5515 -48.7756 0)
(7.2025 -0.0485432 0)
(-6.87729 4.91337 0)
(12.6534 -42.1993 0)
(3.57854 -8.06373 0)
(-3.8032 0.290201 0)
(10.006 -28.1777 0)
(7.23683 -21.5492 0)
(4.56522 -15.956 0)
(3.88869 -20.454 0)
(4.83244 -24.2556 0)
(5.25811 -26.5673 0)
(3.58457 -25.5372 0)
(3.40097 -25.9429 0)
(3.95299 -28.8193 0)
(3.29817 -30.2234 0)
(2.04951 -29.7637 0)
(1.42648 -30.0014 0)
(0.999121 -30.6591 0)
(0.421117 -30.508 0)
(0.125089 -30.0656 0)
(0.0273651 -29.5339 0)
(-0.380861 -28.2362 0)
(-1.04252 -26.3656 0)
(-1.59502 -24.5048 0)
(-1.99362 -22.4099 0)
(-2.19423 -19.5842 0)
(-2.42137 -15.9781 0)
(-3.19354 -11.6155 0)
(-2.90973 -6.97364 0)
(-4.86321 -2.10356 0)
(505.906 -101.212 0)
(-26.3138 -1448.69 0)
(-285.096 7.32978 0)
(-338.64 2057.19 0)
(-389.758 34.4219 0)
(897.004 -1290.09 0)
(75.6898 -412.492 0)
(-335.487 988.158 0)
(-121.429 -232.068 0)
(149.903 -141.912 0)
(-24.6754 46.9688 0)
(-3.36455 -37.1423 0)
(-8.11751 57.3976 0)
(-1.73586 -27.1641 0)
(15.1222 -45.2917 0)
(-3.17781 8.86037 0)
(4.5332 -22.1064 0)
(9.98595 -29.1267 0)
(1.83189 -11.9203 0)
(5.44804 -18.7947 0)
(5.24265 -24.038 0)
(3.30936 -26.1762 0)
(2.32733 -24.759 0)
(2.24268 -25.3845 0)
(4.10053 -29.3332 0)
(4.10168 -30.8941 0)
(2.37051 -28.7271 0)
(1.29465 -27.6619 0)
(1.17315 -28.7384 0)
(1.09118 -29.7356 0)
(1.04873 -30.1075 0)
(1.24389 -30.449 0)
(1.15013 -30.1406 0)
(0.471922 -28.5024 0)
(-0.305904 -26.3104 0)
(-0.759589 -24.4018 0)
(-1.17013 -22.3098 0)
(-1.70712 -19.2155 0)
(-2.37475 -15.1398 0)
(-3.38833 -10.5737 0)
(-2.78696 -6.1791 0)
(-4.31938 -2.0507 0)
(-163.631 -1245.19 0)
(-157.866 -1967.72 0)
(681.708 -192.194 0)
(-193.461 834.785 0)
(-455.272 1671.07 0)
(-123.126 -224.857 0)
(235.557 -1408.76 0)
(321.021 228.507 0)
(-289.882 428.742 0)
(-11.0458 -82.4029 0)
(72.7066 -148.847 0)
(5.33251 -7.18525 0)
(-24.4637 74.6263 0)
(15.9924 -59.9951 0)
(20.0961 -41.2817 0)
(0.898904 1.55271 0)
(5.63225 -16.1308 0)
(2.36563 -13.3223 0)
(3.99907 -18.2526 0)
(5.79383 -19.9527 0)
(3.78234 -16.1391 0)
(0.125911 -16.2741 0)
(-0.241344 -19.5454 0)
(3.37354 -26.4271 0)
(4.48168 -30.0092 0)
(1.72749 -26.5405 0)
(-0.087715 -24.3088 0)
(0.552387 -26.6332 0)
(1.56909 -29.3172 0)
(1.89766 -29.7765 0)
(2.08887 -29.78 0)
(2.14622 -29.9477 0)
(1.63068 -29.2975 0)
(0.76767 -27.7085 0)
(0.0871896 -25.9049 0)
(-0.3455 -24.1611 0)
(-1.00934 -21.9044 0)
(-2.05888 -18.4928 0)
(-3.0888 -14.1528 0)
(-4.06838 -9.68554 0)
(-2.89423 -5.80893 0)
(-4.02089 -2.16741 0)
(-383.533 -70.9292 0)
(97.6352 1072.8 0)
(-148.281 33.0065 0)
(728.331 -1285.97 0)
(-334.718 -166.984 0)
(36.9804 1020.55 0)
(-204.202 214.449 0)
(187.839 -709.5 0)
(122.027 65.9286 0)
(-118.712 197.869 0)
(39.8587 -141.634 0)
(23.8126 32.4204 0)
(-20.3941 29.8058 0)
(21.7915 -58.6932 0)
(13.1482 -18.9212 0)
(-2.95504 3.71069 0)
(-8.84651 17.0485 0)
(-1.51792 -13.6935 0)
(13.0704 -42.2275 0)
(0.42946 -15.9195 0)
(-4.8243 0.15289 0)
(-3.66814 -11.7357 0)
(0.846998 -20.5847 0)
(5.641 -31.9993 0)
(3.2083 -28.5198 0)
(-0.661227 -20.882 0)
(-0.436164 -21.5672 0)
(1.61828 -26.8653 0)
(2.50343 -29.5747 0)
(2.43956 -29.6455 0)
(2.29886 -29.6967 0)
(1.89008 -29.5997 0)
(1.22514 -28.8776 0)
(0.643379 -27.6782 0)
(0.146928 -25.9762 0)
(-0.546692 -23.6872 0)
(-1.63956 -20.864 0)
(-2.97151 -17.4841 0)
(-3.9024 -13.6144 0)
(-4.53356 -9.61226 0)
(-2.94664 -6.01911 0)
(-4.05597 -2.31799 0)
(1037.97 1424.34 0)
(-153.29 465.011 0)
(-1188.42 415.568 0)
(-192.208 -26.8422 0)
(1086.02 -880.913 0)
(-199.996 -443.308 0)
(-552.579 1131.76 0)
(64.5197 -277.318 0)
(259.106 -238.668 0)
(-33.1213 137.236 0)
(-35.9296 -14.682 0)
(13.4313 11.9987 0)
(8.00498 -48.031 0)
(7.92847 -5.37754 0)
(-5.08842 -3.72556 0)
(-3.01897 -9.1463 0)
(-12.2769 28.7573 0)
(3.20549 -21.9757 0)
(14.8748 -43.8965 0)
(-4.29323 -8.96923 0)
(-6.2894 1.86609 0)
(0.324776 -17.1285 0)
(5.21673 -25.3297 0)
(5.52789 -30.5759 0)
(0.35063 -22.808 0)
(-1.29784 -19.1748 0)
(0.669983 -23.5771 0)
(2.18086 -28.2231 0)
(2.26037 -29.6014 0)
(2.10893 -30.1981 0)
(1.65633 -30.2701 0)
(0.774784 -29.4157 0)
(0.128126 -28.7797 0)
(-0.145564 -28.4522 0)
(-0.579005 -27.1641 0)
(-1.52492 -24.3073 0)
(-2.69543 -20.6878 0)
(-3.67726 -17.2076 0)
(-3.99297 -13.9622 0)
(-4.1868 -10.5574 0)
(-2.72837 -6.85676 0)
(-4.34453 -2.46171 0)
(683.185 1397.23 0)
(-613.39 1758.22 0)
(-562.667 -470.927 0)
(-21.0381 -54.3568 0)
(1249.41 -1553.23 0)
(94.5366 -317.299 0)
(-1223.66 1823.11 0)
(291.978 -383.284 0)
(319.364 -535.977 0)
(-62.8209 233.213 0)
(-134.116 74.0031 0)
(37.7971 -81.858 0)
(14.6884 -28.5893 0)
(-2.24068 5.768 0)
(9.26752 -35.4513 0)
(-2.45993 9.65816 0)
(-10.314 12.0938 0)
(16.4419 -44.2588 0)
(5.41626 -21.8463 0)
(-7.066 2.37481 0)
(1.37387 -12.47 0)
(5.93154 -23.1032 0)
(3.03208 -24.5761 0)
(-0.497944 -19.8433 0)
(-2.11948 -18.3727 0)
(0.102415 -23.271 0)
(1.69487 -27.6577 0)
(1.07639 -28.0563 0)
(0.549798 -28.836 0)
(0.586777 -31.0061 0)
(0.167682 -31.8095 0)
(-0.518549 -31.0581 0)
(-0.832211 -30.3553 0)
(-1.04045 -29.747 0)
(-1.64148 -28.229 0)
(-2.56444 -25.4373 0)
(-3.19251 -22.1091 0)
(-3.30786 -18.8774 0)
(-2.95083 -15.6409 0)
(-3.02025 -11.9886 0)
(-2.21108 -7.66404 0)
(-4.40615 -2.52004 0)
(620.034 1147.08 0)
(-173.494 1109.94 0)
(-580.746 -256.118 0)
(-210.39 178.286 0)
(828.577 -707.257 0)
(-97.7784 -619.879 0)
(-258.41 917.648 0)
(-104.961 5.38969 0)
(189.651 -314.431 0)
(24.5828 -0.664195 0)
(-34.6828 67.0732 0)
(9.11616 -16.3551 0)
(3.93589 7.61034 0)
(12.6085 -51.1302 0)
(0.650369 4.19505 0)
(-20.5356 59.0456 0)
(7.24179 -46.8129 0)
(11.3992 -40.3074 0)
(-15.9927 21.8452 0)
(-10.6676 0.144488 0)
(7.6253 -34.361 0)
(5.93928 -27.2565 0)
(-1.95089 -20.8639 0)
(-4.66296 -15.5705 0)
(-0.165873 -23.3501 0)
(3.0679 -31.7342 0)
(1.26911 -29.195 0)
(-0.938005 -25.6677 0)
(-0.865001 -27.3644 0)
(-0.51942 -30.2633 0)
(-0.947014 -31.1095 0)
(-1.35208 -31.2024 0)
(-1.46347 -31.2111 0)
(-1.66778 -30.6515 0)
(-2.11219 -29.1848 0)
(-2.53481 -26.7528 0)
(-2.42482 -23.9969 0)
(-1.85501 -21.2353 0)
(-1.24925 -17.8829 0)
(-1.53986 -13.4802 0)
(-1.39109 -8.16287 0)
(-3.76013 -2.48363 0)
(-309.016 -1142 0)
(-162.8 -1419.21 0)
(865.633 -14.8959 0)
(-98.2304 368.582 0)
(-559.246 1506.05 0)
(-276.9 -214.4 0)
(416.36 -1173.08 0)
(284.167 248.755 0)
(-292.804 423.693 0)
(22.8383 -168.376 0)
(91.1413 -118.792 0)
(-29.0023 101.402 0)
(-25.9588 -9.77534 0)
(35.4815 -130.108 0)
(-18.127 73.9775 0)
(-43.3894 49.4413 0)
(45.91 -117.507 0)
(-2.55873 -25.9834 0)
(-27.9882 44.785 0)
(6.80976 -29.069 0)
(18.3732 -47.5191 0)
(-0.159201 -21.0143 0)
(-6.22536 -6.87536 0)
(-1.743 -10.4321 0)
(2.63657 -25.8032 0)
(2.19758 -29.3775 0)
(-1.97569 -23.1768 0)
(-2.52182 -23.3487 0)
(-1.27414 -27.6655 0)
(-1.55354 -28.4745 0)
(-2.01978 -28.3602 0)
(-1.56588 -30.0595 0)
(-1.30516 -30.8408 0)
(-1.5779 -29.9341 0)
(-1.76279 -28.8403 0)
(-1.48295 -27.5698 0)
(-0.716403 -25.7039 0)
(0.0372172 -23.0169 0)
(0.327619 -19.1621 0)
(-0.264419 -14.2305 0)
(-0.181186 -8.51663 0)
(-2.16847 -2.58793 0)
(578.171 886.202 0)
(-327.116 758.469 0)
(-674.251 -103.24 0)
(-198.436 597.969 0)
(667.216 -370.767 0)
(69.4332 -1426.96 0)
(275.285 593.797 0)
(-707.39 703.55 0)
(141.828 -381.202 0)
(164.466 -128.174 0)
(-26.1023 -9.23042 0)
(-9.00757 95.1689 0)
(5.64196 -37.8498 0)
(29.2224 -95.2325 0)
(-13.3175 101.361 0)
(-11.9517 -30.8311 0)
(33.8359 -83.0475 0)
(-18.1439 50.5675 0)
(-28.2524 34.0187 0)
(25.585 -59.4341 0)
(10.4195 -35.3573 0)
(-11.926 6.03236 0)
(-10.3395 -5.8652 0)
(3.11373 -17.8463 0)
(4.05982 -30.9582 0)
(-2.61621 -18.8495 0)
(-5.72509 -12.8018 0)
(-2.74196 -19.8842 0)
(-0.725137 -27.2798 0)
(-2.01898 -25.3315 0)
(-2.27876 -24.4541 0)
(-1.13216 -27.2805 0)
(-0.78566 -28.4481 0)
(-1.08907 -27.4056 0)
(-0.938575 -26.8389 0)
(-0.130552 -26.8051 0)
(0.849144 -26.0177 0)
(1.32636 -23.5516 0)
(1.24707 -19.4698 0)
(0.784268 -14.555 0)
(1.51925 -9.00957 0)
(0.085625 -2.87656 0)
(-35.2459 -437.793 0)
(-321.045 -1962.17 0)
(608.259 1.77055 0)
(-135.879 1029.2 0)
(-751.56 1098.94 0)
(529.024 -532.139 0)
(71.0219 -1067.78 0)
(24.7649 627.078 0)
(-243.372 240.891 0)
(115.92 -232.845 0)
(67.1256 -55.9212 0)
(-41.3655 162.945 0)
(0.785792 -69.0037 0)
(7.8463 -32.6408 0)
(-31.4856 102.24 0)
(18.0618 -91.0277 0)
(2.48705 -40.9931 0)
(-31.0107 68.4555 0)
(1.39331 -28.3498 0)
(26.7137 -59.0341 0)
(-8.17324 -4.28371 0)
(-17.1332 23.5151 0)
(-5.91235 -10.0777 0)
(6.21935 -24.202 0)
(-0.255279 -23.1203 0)
(-6.98855 -9.59285 0)
(-5.53605 -9.33654 0)
(-0.992527 -19.1241 0)
(-0.802068 -22.1901 0)
(-2.63829 -19.0431 0)
(-2.00677 -20.1227 0)
(-0.57429 -23.764 0)
(-0.392869 -24.7226 0)
(-0.640378 -23.8525 0)
(-0.246836 -23.8297 0)
(0.798241 -24.747 0)
(1.70909 -24.9524 0)
(1.85179 -22.8871 0)
(1.6885 -19.039 0)
(1.71449 -14.7267 0)
(3.33234 -9.75508 0)
(2.17284 -3.32817 0)
(-438.901 -1270.25 0)
(154.006 -1040.65 0)
(738.207 -122.775 0)
(-164.64 46.478 0)
(-269.133 850.076 0)
(-443.344 476.1 0)
(525.317 -530.099 0)
(148.051 -541.335 0)
(-132.519 478.113 0)
(-129.018 21.1834 0)
(63.9248 -139.617 0)
(-14.7897 70.1442 0)
(1.37368 -67.8191 0)
(-3.37523 29.4862 0)
(-28.9825 49.9573 0)
(25.8463 -75.7657 0)
(-9.75686 15.7183 0)
(-27.3548 44.2459 0)
(16.6743 -40.8688 0)
(2.87181 -22.0458 0)
(-19.22 16.9693 0)
(-12.1446 10.5878 0)
(0.257809 -11.5038 0)
(0.339211 -11.5537 0)
(-6.95283 -6.92107 0)
(-7.33361 -4.19815 0)
(-2.57761 -11.2163 0)
(0.023187 -17.6387 0)
(-1.44498 -15.6003 0)
(-2.16756 -13.6036 0)
(-1.04221 -15.6096 0)
(-0.112783 -18.4978 0)
(0.0012152 -19.8291 0)
(0.06272 -20.1783 0)
(0.524447 -20.6242 0)
(1.31482 -21.5893 0)
(1.80793 -22.2315 0)
(1.79785 -21.1802 0)
(1.95805 -18.4656 0)
(2.49496 -14.9327 0)
(4.60874 -10.3396 0)
(3.29891 -3.73198 0)
(1141.75 1327.66 0)
(-808.11 1071.37 0)
(-567.864 -439.256 0)
(-345.811 -176.744 0)
(710.908 -942.589 0)
(254.807 262.432 0)
(-668.831 930.559 0)
(142.963 -553.019 0)
(236.268 -100.87 0)
(-99.355 216.818 0)
(-27.2933 -11.3375 0)
(9.20448 -31.7219 0)
(-10.5531 -23.9388 0)
(-26.6256 69.6691 0)
(-15.8113 -8.62563 0)
(12.8398 -52.4222 0)
(-18.9088 29.7219 0)
(-24.7487 25.8818 0)
(-6.16531 -8.56759 0)
(-10.9584 -4.72205 0)
(-8.27784 -5.26099 0)
(-2.21623 -10.0866 0)
(-5.05841 -5.85317 0)
(-7.69968 0.77266 0)
(-4.73446 -1.97147 0)
(-2.00157 -6.61756 0)
(0.377421 -10.3967 0)
(-0.729445 -9.43736 0)
(-1.65633 -8.37006 0)
(-0.8802 -9.4308 0)
(0.0820873 -10.9738 0)
(0.474593 -12.2262 0)
(0.578298 -13.6715 0)
(0.745651 -15.4182 0)
(1.18841 -17.2282 0)
(1.6796 -18.5438 0)
(1.73292 -18.7999 0)
(1.65554 -18.175 0)
(2.17779 -16.9539 0)
(2.94252 -14.5794 0)
(4.898 -10.25 0)
(3.13203 -3.80597 0)
(1015.68 1992.7 0)
(-1059.89 2695.14 0)
(-604.493 -773.13 0)
(201.804 -621.963 0)
(565.02 -2072.91 0)
(502.551 682.168 0)
(-1067.53 1505.26 0)
(277.708 -632.396 0)
(274.206 -299.125 0)
(-113.5 164.33 0)
(-53.4863 69.7094 0)
(5.71215 -51.139 0)
(-9.68807 -11.4488 0)
(-21.5648 42.1244 0)
(6.80215 -48.0776 0)
(-1.67324 -7.13379 0)
(-25.5521 40.5056 0)
(-13.8516 7.62166 0)
(-5.71015 -1.72425 0)
(-4.01482 -3.41703 0)
(0.825627 -9.71117 0)
(-2.29641 -5.38238 0)
(-6.52115 0.897418 0)
(-2.49574 -5.28964 0)
(3.67424 -8.0189 0)
(1.54328 -7.32508 0)
(-1.77742 -0.451905 0)
(-3.49437 0.773131 0)
(-1.89501 -4.22154 0)
(0.274058 -9.04774 0)
(1.3463 -9.93961 0)
(1.67288 -9.41132 0)
(1.45561 -8.8412 0)
(1.17341 -9.37574 0)
(1.49692 -11.8688 0)
(2.00065 -14.6482 0)
(1.95441 -15.2658 0)
(1.81268 -14.4782 0)
(2.36674 -13.9204 0)
(2.94671 -12.7389 0)
(4.18352 -9.11162 0)
(1.9705 -3.46679 0)
(-700.359 408.969 0)
(901.024 2577.83 0)
(-556.789 -533.991 0)
(865.007 -2260.36 0)
(-183.812 -589.151 0)
(-339.463 2037.06 0)
(-98.0296 440.424 0)
(201.261 -1274.51 0)
(-14.6607 188.286 0)
(-162.655 150.309 0)
(55.5546 -52 0)
(13.3096 -6.92786 0)
(-3.06851 1.91571 0)
(5.71165 -13.2479 0)
(9.00065 -22.9688 0)
(0.0197572 -4.62978 0)
(-2.09439 -3.61348 0)
(-7.95946 21.0055 0)
(-10.8757 21.925 0)
(4.11271 -10.9191 0)
(4.70104 -14.0245 0)
(-6.02931 4.28569 0)
(-4.0178 7.79293 0)
(4.63145 -13.3431 0)
(7.91022 -19.2022 0)
(1.30485 -6.37173 0)
(-4.24296 4.58877 0)
(-3.73444 5.85744 0)
(-0.930765 -0.352311 0)
(1.49593 -6.91113 0)
(2.79877 -9.71484 0)
(2.73678 -9.27794 0)
(1.59053 -6.48752 0)
(0.886092 -4.9527 0)
(1.4051 -6.62497 0)
(2.24755 -9.93139 0)
(2.44961 -11.4656 0)
(2.26512 -10.7205 0)
(2.50451 -9.93125 0)
(2.61569 -9.23399 0)
(2.93931 -6.74108 0)
(0.70626 -2.77033 0)
(27.2622 1177.21 0)
(-245.87 2639.11 0)
(-393.378 -320.144 0)
(534.58 -1384.69 0)
(122.564 -1567.62 0)
(636.458 856.109 0)
(-1281.52 1288.45 0)
(356.255 -731.427 0)
(341.138 -290.579 0)
(-156.825 302.686 0)
(-39.4157 5.50162 0)
(62.4334 -58.2152 0)
(11.3175 4.74197 0)
(-1.54856 15.2782 0)
(3.97514 -11.9586 0)
(7.48315 -22.3325 0)
(-0.739468 3.697 0)
(-3.72743 3.9138 0)
(9.12404 -21.2491 0)
(8.01122 -11.1259 0)
(-5.83138 12.3502 0)
(-7.34484 12.08 0)
(2.86417 -4.6991 0)
(8.41303 -12.928 0)
(3.08328 -9.16708 0)
(-1.59751 -3.9219 0)
(-0.792716 -2.54653 0)
(0.231409 -0.904873 0)
(0.528508 1.0098 0)
(1.18549 -0.296928 0)
(2.11648 -4.1185 0)
(1.87145 -5.76088 0)
(0.870462 -4.15339 0)
(0.666767 -2.63849 0)
(1.51881 -2.94876 0)
(2.45755 -4.64504 0)
(2.78926 -6.1052 0)
(2.62711 -6.05497 0)
(2.50153 -5.28576 0)
(2.12671 -4.47883 0)