/*--------------------------------*- C++ -*----------------------------------*\
| =========                 |                                                 |
| \\      /  F ield         | OpenFOAM: The Open Source CFD Toolbox           |
|  \\    /   O peration     | Version:  2412                                  |
|   \\  /    A nd           | Website:  www.openfoam.com                      |
|    \\/     M anipulation  |                                                 |
\*---------------------------------------------------------------------------*/
FoamFile
{
    version     2.0;
    format      ascii;
    arch        "LSB;label=32;scalar=64";
    class       volScalarField;
    location    "0.013";
    object      ddt0(rhoE);
}
// * * * * * * * * * * * * * * * * * * * * * * * * * * * * * * * * * * * * * //

dimensions      [1 -1 -3 0 0 0 0];

internalField   nonuniform List<scalar> 
8988
(
1724.54
5343.25
6709.07
-9756.22
-18751.4
54287.7
14715.8
-16981.6
-14389.9
-2010.55
2187.94
6920.69
5592.14
1921.46
2093.57
3301.13
2681.75
2101.91
1942.27
1850.09
1662.45
1525.17
1486.04
1419.4
1500.56
1285.88
1028.73
888.624
665.178
341.283
80.8418
-171.401
-390.692
-588.777
-796.403
-970.881
-1211.73
-1484.09
-1748.65
-1980.23
-2177.58
-2260.6
33042.5
-2372.54
-46140.3
78173.8
-11994.7
-30430.1
-29558.3
22219.7
51989.1
8206.4
-31292.9
-4681.78
20762.6
4254.1
4061.09
602.56
2383.57
3797.69
4132.62
1863.78
1857.43
1997.08
1529.31
1499.84
1486.97
1337.85
1251.51
1000.56
811.152
541.017
118.962
-324.928
-785.935
-1168.24
-1502.56
-1876.88
-2226.6
-2509.83
-2710.58
-2868.67
-3013.46
-3014.18
69258.1
6578.02
-76559.7
-100582
207246
17211.3
-121897
-17769.5
99003.9
1384.48
-38096.6
-4032
25236.2
6809.92
2528
4594.38
6101.36
4696.04
3912.46
4744.94
4712.52
4397.16
4082.98
3753.89
3408.59
3003.35
2695.53
2394.06
2053.41
1563.84
866.795
136.273
-477.037
-1004.45
-1485.82
-1985.42
-2469.04
-2878.4
-3216.74
-3486.41
-3648.15
-3729.72
92226.7
10851.9
-117985
-43644.2
-12304.2
137950
16072.5
-86101.4
22576.2
31527.2
-4272.65
-4603.29
9101.55
3156.01
2755.04
2804.5
3218.75
3682.11
4231.19
3937.35
3831.56
3929.17
3613.34
3184.03
2848.15
2617.08
2480.23
2418.53
2194.32
1959.62
1587.07
1056.39
454.76
-141.717
-801.623
-1553.26
-2333.13
-3050.23
-3491.55
-3862.26
-4377
-4572.53
51532.8
-34452.4
75472.6
-59604.7
-105100
128380
1082.4
-30744.6
-37853.8
39166.7
15050.2
-4518.94
-2731.75
2622.33
2186.12
2346.55
2185.75
2865.59
3223.3
3250.12
3014.25
3157.05
3121.3
2989.41
2781.62
2638.95
2541.05
2435.11
2164.92
1920.99
1758.57
1581.9
1256.11
756.556
78.2624
-779.76
-1723.12
-2612.77
-3334.83
-4141.6
-4763.92
-4941.03
-28285.7
16665
113260
-42478.6
-78501.2
-102306
189629
15490.3
-78933.1
-6155.66
30003.9
-3631.22
478.844
-2290.94
-3938.25
6289.64
7483.22
1060.13
-1587.29
1924.74
3713.06
2488.11
2310.42
2519.38
2569.05
2355.94
2336.9
2381.25
2166.41
1847.72
1668.27
1595.22
1428.3
1071.05
571.684
-51.4541
-808.145
-1695.39
-2572.46
-3464.81
-4271.37
-4622.68
-55303.7
15410.2
-19778.3
151002
-30214.2
-107726
-25113.1
111653
8889.87
-46494.1
3095.61
9662.79
9216.15
1930.29
-14753.4
-5130.95
12532.5
3812.17
-946.868
-634.954
2156.28
1967.88
958.619
1209.93
1581.3
1390.55
1216.9
1310.37
1289.44
1099.95
1002.77
1011.46
955.19
767.364
503.222
196.911
-182.811
-694.888
-1316.62
-1996.08
-2785.92
-2958.41
-66086.4
-6588.45
37575
85211.5
-2809.38
-1086.48
-116417
64819.4
12065.2
898.263
-20001.6
1634.5
13428
3962.75
-9338.63
-15302.4
6483.83
9932.83
-1426.92
-6947.01
-977.65
2287.18
-687.571
-686.275
167.267
168.463
-135.12
-96.4028
97.8554
128.379
153.808
251.422
303.605
296.273
288.464
305.829
335.611
359.225
308.943
207.365
-223.866
-67.6388
81768.4
-24192.4
-55239.8
-21885
-95573.6
151349
-7169.69
-38064.8
-21107.5
17233
-3320.66
-4290.5
-4269.89
7136.36
-1145.66
-14674.6
-3177.71
6931.23
-1439.94
-6405.95
-3362.5
833.084
-2123.13
-2457.42
-1476.78
-1196.9
-1564.5
-1553.93
-1211.83
-951.003
-775.213
-535.729
-286.706
-36.7128
257.822
612.787
1028.45
1544.56
2088.53
2647.95
2764.01
3380.94
-19337.5
-7539.64
71302.8
-13111.4
-35967.5
-101578
106483
-627.128
-30667
-15683.5
18360.1
-4062.6
-17930.2
-3376.05
5151.28
-7264.86
-12191.6
-3349.97
2544.96
-4843.75
-6651.55
-4244.04
-2003.42
-4160.32
-3958.13
-2797.39
-2889.76
-2951.37
-2593.34
-2104.52
-1696.01
-1265.07
-761.605
-190.201
459.121
1197.52
2017.51
2963.87
3972.09
5009.55
5522.01
6485.61
-55068.1
-10200.3
21699.7
61051.6
-16884.7
-16955.8
-78030.2
31439
11799.6
-12042.5
-17750.4
6429.47
125.262
-20254.3
2086.55
548.629
-17048.4
-11831.3
-950.697
-1386.12
-7589.04
-7520.3
-4401.11
-4742.51
-5484
-4574.58
-3741.51
-3922.78
-3612.24
-2964.92
-2304.41
-1658.67
-903.377
-28.4053
951.043
2037.26
3192.09
4419.95
5653.19
6832.93
7477.7
8552.72
45847.9
-40116.3
-1655.87
-25964.4
-98656.8
86530.6
-2077.09
-46812.2
-2002.46
3695.75
-25918
2521.26
1022.5
-23929.2
-4094.74
-1457.78
-16017.3
-10867.2
-2616.5
-4356.41
-9359.49
-8046.11
-5004.92
-5941.62
-6551.09
-5706.51
-4468.45
-4367.67
-4078.21
-3346.21
-2489.62
-1630.64
-658.087
427.057
1617.49
2903.19
4218.32
5528.3
6767.73
7837.28
8490.5
9456.33
-26468.6
-8445.29
8588.26
8785.21
-16452.8
-99673.3
47791.8
10195.9
-32424.6
-5857.28
-9031.67
-10311.7
-8490.36
-11394.8
-7607.88
-7561.27
-10689.6
-8701.91
-6323.9
-8420.25
-7679.82
-6330.2
-6775.1
-7083.67
-6487.39
-5699.95
-5293.67
-4753.15
-3804.83
-3070.93
-2361.26
-1389.88
-220.104
1007.14
2217.25
3507.6
4808.37
6056.6
7223.6
8162.12
8763.58
9430.21
-35991.1
41804.4
-15001.8
-4421.5
6726.94
-142432
105643
7396.1
-40886.7
-23469
20.707
-11703.5
-14611.5
-7414.06
-8316.02
-11214.4
-9122.31
-7608.88
-8444.79
-7818.63
-6717.9
-7205.98
-7488.52
-6791.63
-6057.67
-5778.83
-5295.41
-4465.11
-3666.57
-2883.67
-1954.05
-899.739
225.393
1387.42
2572.26
3760.02
4936.77
6070.24
7120.63
7907.86
8486.4
8905.14
-39888.7
-22959.5
4159.54
30785.6
26656.3
-59485
-6262.56
12001.2
-17074
-12055.3
-4283.77
-13681.2
-5898.9
-5607.24
-12242
-9589.94
-6991.7
-8547.32
-8355.99
-7018.62
-6845.8
-7290.6
-7010.9
-6031.69
-5805.72
-5505.5
-4739.68
-3973.55
-3255.14
-2429.1
-1501.26
-498.471
540.317
1581.42
2631.3
3679.74
4703.85
5645.55
6519.24
7217.92
7859.61
8247.35
-4429.09
-56616.5
124630
-5692.92
-155152
52989.7
15851.3
-25741.5
-17435.1
3875.88
-6711.89
-10880.3
-5862.42
-8393.27
-10471.4
-7989.38
-7967.62
-8644.18
-7209.57
-5949.55
-7165.91
-7257.93
-6128.28
-5776.59
-5569.64
-4808.05
-4059.84
-3517.29
-2862.71
-2024.15
-1101.36
-148.68
771.189
1644.57
2524.74
3407.06
4262.35
5045.68
5792.22
6414.24
7060.15
7336.52
-34851.7
39361.5
9023.88
-24821.7
7796.89
-131803
79259
22450.4
-33554
-5544.72
-594.921
-5522.78
-5797.05
-9146.46
-7163.29
-6821.49
-8206.16
-7119.39
-5833.25
-6052.41
-6365.51
-6110.58
-5766.05
-5645.74
-4981.05
-4120
-3502.72
-2942.33
-2338.17
-1727.19
-972.978
-65.8477
806.671
1567.16
2295.07
3031.32
3766.33
4461.61
5099.45
5602.85
6169.33
6268.84
-38861.2
-18578.3
14634.8
13788.7
5940.37
6413.97
-62638.7
15192.4
11038.4
-10323.1
-4357.84
-2588.99
-7023.29
-5646.86
-5592.16
-7312.19
-6137.8
-4633.46
-4967.93
-4669.02
-4764.88
-5082.15
-5425.92
-4971.69
-4005.07
-3517.29
-3184.49
-2495.47
-1786.02
-1287.12
-739.582
-42.9298
660.895
1308.8
1934.18
2558.4
3193.14
3827.32
4380.16
4758.05
5219.17
5156.98
-32800.4
19174.5
-34483.8
28480.8
40448.1
-95813.7
35903.7
17558.8
-22690.5
-5629.44
1266.46
-6132.87
-5147.62
-4288.59
-6239.22
-5404.44
-3823.6
-3438.57
-3465.26
-2938.56
-3653.95
-4127.01
-4142.65
-3366.35
-2771.87
-2677.87
-2425.89
-1895.96
-1467.92
-1142.38
-708.428
-190.808
349.822
947.626
1563.25
2119.11
2624.42
3138.39
3586.81
3844.65
4221.74
4039.11
-122900
38154.2
18747.6
130581
8256.43
-83979.1
-48790.3
69662.5
-23000.8
-12292
3461.25
-6405.76
-1528.48
-2283.9
-7583.96
-4150.54
-2181.48
-3385.38
-2295.7
-1549.39
-3257.64
-3786.6
-2994.75
-2535.26
-2645.29
-2448.56
-1726.58
-1184.95
-972.329
-776.305
-494.29
-203.525
139.238
616.717
1152.74
1620.66
2003.51
2382
2714.55
2838.58
3118.48
2818.68
21954.5
-54007.8
7365.11
-4620.55
104641
40658.5
-138001
13444.6
41812.9
-13535
-9352.91
-4385.1
1418.08
-3488.7
-6918.01
-2489.3
-1144.34
-1954.49
-1194.49
-1137.72
-790.343
-1129.6
-1589.61
-2311.47
-2395.3
-1530.58
-922.831
-954.778
-989.402
-715.15
-421.548
-217.589
26.6201
366.084
728.685
1033.95
1270.22
1503.22
1734.9
1764.7
1956.31
1531.19
15039.4
6736.34
-69041.4
-6084.7
-98808.2
160864
1401.5
-64156.5
407.273
17487.5
-9193.28
104.011
3242.49
-4520.67
-3554.84
-447.94
510.195
-328.662
-1379.6
-506.106
487.359
753.127
-680.667
-2908.37
-1863.89
-289.406
-166.006
-708.934
-825.593
-607.335
-456.303
-364.236
-232.597
-40.578
199.653
427.577
571.065
635.915
713.425
672.009
850.332
386.431
15390.1
67195.9
968.827
-28051.7
-56064.5
-97623.5
56791
29921.9
-24714.4
11512.3
-3341.98
-1283.73
-1914.88
-1682.83
910.7
-630.216
1459.69
2233.07
-720.29
664.065
1503.96
1466.83
-56.2787
-1832.62
-306.935
535.21
-19.3906
-544.426
-588.756
-592.758
-593.719
-521.61
-502.845
-551.54
-527.598
-386.454
-235.205
-192.032
-186.938
-265.013
-60.5546
-462.703
28331.9
-10684.9
93545.6
-28487.1
-104540
4209.01
33443.6
46908.3
-62819.5
16806.4
-755.398
-3056.05
-1574.13
775.878
819.916
2096.62
2579.76
2217.71
1283.7
2545.14
2811.97
1060.98
233.128
948.969
1268.58
510.558
-23.4889
15.9319
-140.583
-567.033
-835.985
-891.466
-946.518
-1064.85
-1149.16
-1132.01
-1053.41
-1001.77
-933.271
-920.704
-652.001
-949.659
11370.3
16396.2
52075.2
-27432.7
15628.9
-110442
73387.9
31937.9
-6325.6
-2149.79
9915.36
3737.79
2546.59
1741.32
2381.38
5810.18
3834.9
799.805
3913.55
4677.47
2208.56
832.138
1383.92
2736.04
1072.1
-399.857
169.521
696.661
313.057
-299.856
-676.736
-962.198
-1229.3
-1457.54
-1619.55
-1663.9
-1627.73
-1592.88
-1492.64
-1375.29
-1002.75
-1163.09
12453.8
-33513.4
15765.7
18105.3
74561.4
17917.2
-80686.5
14625.2
43575.3
-3423.05
260.343
11648
2723.46
-4962.97
8210.29
5171.91
-1365.03
302.922
5748.35
5823.63
300.132
1211.16
5200.85
4228.48
714.514
-0.305895
1138.32
950.411
122.412
-165.381
-376.144
-891.986
-1314.26
-1548.63
-1791.59
-1979.18
-2023.42
-1967.67
-1810.99
-1636.7
-1216.19
-1299.5
15733.5
-22850.5
7388.54
-23032.4
11013.4
-86125.4
116884
-17468.9
-10750.4
-1704.71
6504.15
12194
6850.56
-5688.47
10069.4
7812.78
-2395.94
6690.39
6805.73
2273.7
1113.43
2520.72
5658.45
3078.99
-733.259
1392.43
2616.61
1122.75
-237.517
-80.7608
-111.114
-749.216
-1239.32
-1457.06
-1748.16
-2075.73
-2256.53
-2228.06
-2033.45
-1833.12
-1394.64
-1484.5
-79560
-59904.5
97645.3
126926
-99727.9
-2787.06
-79377.6
47542.3
24037.9
-6494.58
2188.46
15178.1
6827.47
-3024.77
6452.64
4894.06
-2329.57
5351.15
7889.29
-624.079
1653.65
4877.77
4671.29
2284.35
-150.869
2553.74
2677.06
705.427
71.3364
417.472
99.6689
-661.221
-1125.74
-1329.7
-1626.94
-2038.9
-2368.59
-2420.46
-2243.21
-2094.4
-1720.17
-1925.08
24725.4
18209.5
-49854.6
-36266.3
145527
-48442.1
33944.8
-69114.7
32890.5
11832.3
-9478.07
4623.89
3198.13
3056
5455.3
1590.65
3133.59
5573.01
4682.24
962.462
3202.43
5200.11
3855.13
2405.11
2422.46
3272.49
1783
537.454
797.98
975.623
495.913
-210.311
-757.25
-1124.19
-1436.98
-1815.21
-2244.54
-2522.6
-2573.37
-2606
-2376.7
-2779.94
67447.4
-54577.2
55778.6
-36110
-52725.7
37268.5
3585.45
7713.78
-3841.95
24539.9
3388.6
732.2
333.846
5761.36
3838.68
-673.108
3453.85
6188.52
3447.79
1413.04
2069.71
2562.78
2752.76
3301.41
3581.46
2587.33
1729.61
1737.43
1717.44
1439.39
1098.71
689.947
141.184
-487.043
-1086.29
-1597.99
-2059.15
-2529.28
-2983.78
-3407.55
-3416.05
-3996.46
78987.3
-76941.4
85896.7
-17299.8
-115890
126054
-34209.1
44387.5
-10924.6
11153.6
7128.06
4298.7
-304.522
4392.29
2378.67
1499.12
6025.11
5531.21
3186.73
3054.6
3147.2
2644.14
2392.49
3117.7
2831.26
2393.91
3794.18
3631.43
2226.67
1373.71
1290.14
1232.71
1013.47
512.1
-338.002
-1266.23
-1975.61
-2609.88
-3404.65
-4284.89
-4641.6
-5346.66
61766.6
-4303.34
-75663.2
28279
-92331.6
161332
5027.96
-27515.8
-12684.2
13468.4
2912.88
7184.79
3912.02
3271.3
1913.05
2315.48
4131.07
5518.27
5693.83
4932.28
3127.24
3596.58
3554.97
2715.91
1656.86
2101.81
4612.8
5097.52
3445.03
2147.98
1687.08
1441.75
1368.48
1108.06
305.493
-883.66
-1973.43
-2857.81
-3831.9
-4973.22
-5684.48
-6488.82
84092.2
-113901
36353.4
7923.12
-170291
262190
-111673
20714.6
-38478.9
20893.7
4295.89
5435.45
5813.7
5974.14
3406.07
2051.76
3589.71
3839.15
3429.22
3647.64
4577.09
4648.35
3836.74
3178.87
2715.06
2856.71
3237.32
3671.41
4144.1
3724.98
2691.68
1903.07
1484
1083.18
415.733
-650.305
-1916.11
-3108.68
-4233.89
-5398.75
-6305.67
-7131.59
-28406
35088
16074.3
-63413.5
120723
-26615.4
-47055.7
-19943.3
20736.8
-3685.59
8418.18
8586.1
2931.96
6365.16
5969.1
2156.45
6860.52
7011.07
3183.76
3283.35
5596.16
5143.48
2159.54
3492.57
4808.45
4265.29
2736.23
2010.11
3470.41
3509.06
2754.26
2224.45
1628.97
812.572
29.0546
-830.854
-1949.82
-3227.35
-4471.19
-5582.85
-6501.06
-7151.81
-38847.3
22915.5
25896.2
-23463.7
121991
-20533.6
-93870.4
-12863.4
47014.3
-5163.71
6480.13
4804.36
2522.1
6963.91
4513.94
959.97
6314.34
5968.62
1731.72
3765.51
6994.83
6077.2
2998.04
3391.85
4871.09
3702.38
2079.02
2372.93
3211.13
2661.9
1995.29
1904.96
1378.3
385.398
-508.616
-1307.42
-2189.7
-3260.72
-4427.89
-5385.06
-6141.76
-6508.26
-99800.6
-65286.1
122854
158487
-103100
-2676.39
-95606.3
70727.5
11463.4
6972.41
4093.09
3465.46
4207.96
6594.35
7582.42
4337.55
4903.2
4235.34
1526.79
741.329
4916.95
6612.42
4408.09
3413.54
3701.42
3608.84
3133.29
3257.68
2991.21
1857.25
1458.21
1359.43
496.73
-657.071
-1222.65
-1558.68
-2300.49
-3237.23
-4152.85
-4808.58
-5379.42
-5471.29
34571.2
-9932.89
9902.7
-111106
30573.6
-105516
105041
-11977.7
86846.9
-51517.8
-98.5614
11064
4211.55
-2284.31
9396.53
6647.35
995.648
4515.62
5726.12
1882.72
4669.31
5942.93
3409.93
1697.14
2734.93
4094.81
2883.15
2522.82
2425.81
1755.73
1257.27
789.494
-66.2222
-1100.38
-1656.5
-1997.28
-2654.67
-3341.2
-3792.5
-4003.91
-4361.55
-4225.81
98183
55208.8
-105994
-5249.61
-49413.7
-30685.9
128531
24282.7
-39202.5
-25235.5
13369.3
12094.2
5227.64
3022.83
6979.06
2826.08
1244.13
5641.98
5535.74
3379.76
4866.47
5561.87
2370.85
1560.82
2941.19
3082.27
1701.27
1389.37
1773.89
1759.49
967.793
211.71
-743.572
-1556.78
-1793.91
-2009.18
-2546.82
-3107.86
-3342.68
-3253.44
-3385.47
-3014.15
19774.2
87707.4
-101680
-8331.91
-58013.8
200026
-17353.2
-37272.2
2430.63
10371.5
10397
9164.22
-2094.69
5447.35
9013.98
2440.16
2540.21
5737.37
3818.72
2441.43
3350.27
2248.09
1537.02
3352.37
3347.33
1370.96
616.791
1671.71
1375.58
112.541
53.7064
-257.592
-906.53
-1520.13
-1704.53
-1724.75
-2000.61
-2403.06
-2616.65
-2529.94
-2668.16
-2189.52
-44027.6
-25137.6
84701.1
153490
-112451
26778.7
-73174.3
109257
-43859.1
14117.7
12727.8
2321.32
-6778.07
9198.1
9068.84
-2115.58
5815.28
6647.63
-397.215
482.677
5859.94
4284.68
-226.61
933.542
2480.68
775.417
313.683
1951.19
908.048
-971.886
-1123.59
-921.947
-1002.69
-1461.62
-1618.85
-1391.44
-1395.93
-1587.25
-1721.91
-1704.21
-1984.11
-1568.12
77729.5
16177.9
-10574.6
-150468
48903.7
-137247
217062
-63229.2
107666
-107974
23156.4
-5381.7
-396.367
7665.27
2388.84
-6359.44
9867.52
4287.05
-5779.75
-3849.01
7831.68
6955.38
347.952
-1573.68
-550.606
-26.3676
1621.16
2475.82
-68.5797
-1398.26
-1207.76
-751.269
-845.168
-1537.73
-1711.66
-1280.48
-1092.18
-1041.02
-943.366
-848.783
-1172.36
-857.988
119989
-133098
22095.8
-1928.2
-117209
275137
-122139
2467.56
-58214.8
29176.8
6412.36
8403.81
4541.27
1712.84
-3605.71
-4212.78
8806.54
4398.3
-4277.86
-3746.89
3894.75
4358.01
716.149
-1801.49
-2143.1
29.4415
2421.42
1574
-707.309
-1299.91
-771.426
-374.495
-351.584
-890.266
-1052.25
-939.591
-987.428
-840.355
-494.97
-192.03
-347.465
-37.1154
-82942.2
-5820.05
116654
65434.2
-65615.4
17553
-58003.4
65471.1
-10747.8
-26112.5
11070.9
12478.7
-5125.3
-430.781
-724.195
-1571.61
1952.4
2273.03
750.848
1220.18
1328.88
199.135
-1081.04
-1797.22
-1319.71
658.863
1463.28
-61.116
-876.706
-296.625
-7.68851
-46.3065
-161.382
-403.147
-150.359
-2.4361
-206.325
-252.71
-11.8152
334.242
365.504
682.774
-74731.4
-40017.6
93707.9
132547
-110995
-5804.6
-133934
252249
-114662
45477.8
-27499
4793.69
-5175.09
-1607.43
-3199.79
-1740.6
-1334.16
-3452.44
-1084.28
382.854
-1732.13
-3371.56
-1958.2
-747.993
-1242.55
-934.555
-214.932
-1466.6
-1124.9
178.551
42.5956
275.463
220.728
120.753
542.667
978.098
1049.75
931.806
877.788
972.21
960.979
1187.2
-66739.1
-36155.7
61447.3
-1000.23
140840
-10321.2
-95991.5
-50576.4
55424.9
13183.1
-11355.2
-5775.03
1004.43
-910.019
-4999.99
-1850.78
648.926
-3064.9
-2635.95
-240.36
-1972.98
-5210.42
-4268.47
-1909.58
-1671.75
-2249.77
-2231.86
-2201.61
-641.851
136.016
-180.613
329.644
512.399
556.059
883.235
1355.56
1767.48
1982.58
1993.88
1957.88
1860.87
2003.66
-26675.9
74240
-169224
27754.3
-129655
249729
-33389.9
-91475.9
-27216.8
32586.9
-11751
-12154.9
-1736.6
-2088.75
-9056.17
-2523.15
-665.117
-4265.73
-4144.47
-2098.85
-2039.71
-2910.71
-3423.48
-3433.31
-2794.2
-2610.21
-3226.06
-2837.52
-789.289
-378.349
-498.175
259.363
667.098
1011.66
1254.65
1363.19
1844.31
2516.83
2872.97
2978.58
2994.96
3249.37
-79193.1
-65627.9
141306
74860.2
-120035
27369.6
-75569.4
15356.6
3172.75
-22689.8
5584.41
2439.94
90.4086
-3597.49
-6167.85
296.539
-5255.11
-9035.17
-2108.72
-1578.07
-6472.9
-4745.31
-2151.15
-3511.5
-3819.57
-2300.92
-1825.36
-1976.23
-1347.76
-876.229
-938.174
-342.457
565.019
1125.48
1460.16
1347.09
1826.6
2779.16
3438.32
3809.28
4052.36
4539.89
-56194.8
14922.3
50496.4
-77473.1
-23136.3
-79340.3
96264
-31547.2
113564
-134068
-1985.61
-11635
-436.3
-5227.07
-16178.3
690.729
-1339.55
-13452.6
-2223.53
2720.14
-10008.8
-7000.43
-160.48
-2152.35
-6336.21
-3706.71
335.953
-1222.8
-2209.66
-1871.2
-1277.88
397.721
1117.11
920.706
1354.51
1576.15
2334.39
3306.11
3864.52
4383.05
4841.27
5547.88
93384.7
-124540
42334.9
-57930.2
-15725.4
6679.61
72880.8
-53625.3
-99649.5
41020.6
-2482.68
-2983.16
-513.284
-8611.07
-6391.4
-7711.05
-6054.28
-8299.67
-1269.45
-203.688
-13336.5
-6057.85
996.722
-3311.95
-6750.88
-3286.76
505.341
-313.368
-2278.14
-3709.03
-1671.06
327.545
1267.73
1132.16
1599.16
1686.21
2777.32
4037.54
4326.36
4728.15
5170.18
5949.8
118173
99854
-154618
10664.6
-44633
-41220.5
68456.1
39027
-97584.3
-15322.7
18773.9
21117
-5230.1
-16725.5
590.195
-7758.57
-22812.8
7031.96
-3096.86
-7163.98
-15647.9
-464.223
2901.6
-7742.61
-6341.78
-465.687
-859.051
-2369.01
-3160.15
-2796.1
-2542.35
-834.999
1616.99
1480.7
1021.95
2239.88
3281.96
3980.63
4437.67
4881.63
5290.48
5870.17
137932
74307.8
-171915
-22319.8
7401.82
-155686
320028
-129997
72736.6
-88369.9
-3065.97
2051.88
1328.47
-7118.85
3795.58
-3882.59
-24894
8247.27
14037.6
-20237.1
-11669
1051.56
-393.052
-6111.63
-4930.51
-2030.21
-2634.87
-3056.43
-2327.4
-2780.66
-2402.14
-39.7663
1047.86
537.061
795.388
1908.55
2856.74
3594.88
4192.94
4813.03
5257
5672.89
-60181.2
-87893.8
153979
85681.3
-7788.39
-43557.3
-134997
204661
6017.24
-25265.9
-38931.3
2999.99
947.925
-2904.42
200.88
-5439.37
-10165.5
-2352.88
-1697.4
-7926.84
-5803.65
-894.088
-2010.33
-3038.3
-1948.59
-2053.26
-2504.77
-1670.49
-2024.6
-3195.83
-2088.31
-149.206
468.216
162.683
557.312
1487.92
2273.65
2904.42
3501.36
4162.77
4771.28
5119.37
-15060.6
90918.1
-49267
-100407
98975
53769.6
-19964.3
-68320.9
20998.4
33950
-20530.5
-4160.03
3754.52
-2028.67
-942.013
-5041.32
-4388.6
1033.4
-2166.34
-7737.09
-2487.63
56.6519
-3389.87
-5208.82
-3212.57
-1276.48
-814.681
-733.215
-1305.41
-1766.4
-1347.83
-581.969
-116.332
185.884
636.251
1112.99
1596
2166.23
2679.36
3208.93
3893.3
4070.12
-33967.5
109897
-131816
-26298.8
-30239.2
101445
1610.94
-76791.5
37760.5
-37320.4
24140.6
4225.36
-5081.73
-11001.6
312.358
2356.18
-9902.56
-3976.37
1832.18
-3360.21
-4950.98
-462.956
409.091
-2627.96
-3414.5
-1619.46
53.3143
-383.536
-1217.29
-620.844
-39.6777
-217.397
-579.518
-70.6114
746.785
1069.26
1132.61
1376.15
1744.83
2159.55
2693.94
2530.8
-6005.13
-23282.6
117549
246.736
-47939.5
-13898.4
-141921
243363
-86710.3
-39069.2
-14024
-3060.47
-25311.3
-11437.6
1899.41
11849.4
-2253.76
-12798.2
748.176
5353.18
-2245.17
-3253.39
375.109
258.276
-2423.73
-1513.45
-74.0753
63.1696
-1493.09
-1344.78
894.558
1090.68
-181.199
-215.336
763.198
1085.48
739.142
487.299
631.742
950.886
1335.54
1037.5
-83181.9
-50878.5
112419
16410.1
-27833
17448.4
-193733
286545
-58911.4
-97712.6
-320.866
-375.853
-30346.8
-7363.86
2325.62
7555.09
-1738.03
-12976.3
-4556.07
6463.83
2451.93
-4403.93
-2034.09
1607.15
261.906
-921.721
-105.329
624.278
-1029.54
-1254.7
715.384
1217.8
41.3735
-257.073
518.301
737.895
268.43
-110.87
-61.0189
7.65836
52.7364
-365.302
-74053.3
-118599
196659
6751.2
-26738.4
14179.8
-151163
142326
1027.74
-79256.1
19101.8
-14347.4
-9021.72
-8064.22
4509.86
-2287.77
-6620.72
-400.402
-1115.4
-876.947
2912.65
1601.32
-2543.33
-1148.86
1736.54
1357.11
1113.09
1241.6
556.684
110.329
291.494
620.134
36.433
-224.446
167.547
87.0725
-524.658
-910.59
-863.889
-960.242
-1115.47
-1605.88
-162168
-38430.3
90523.7
-77776.5
314951
-230487
-64087.2
-103368
182608
-28692.8
-21963.2
3807.29
5792.1
737.221
-2463.53
-8020.59
1411.44
8094.62
-90.6972
-787.683
3344.1
3041.36
-590.563
42.2059
1607.45
548.561
715.237
2022.49
1576.96
488.532
931.993
1124.74
262.418
-130.203
-8.18691
-407.386
-1147.97
-1589.24
-1704.78
-1969.5
-2143.36
-2602.9
-52186.8
51545.3
28669
-88130
172701
-105405
-64021.3
-130417
337015
-155574
34047.9
-30774
676.97
2580.04
2171.55
4414.28
-684.948
-4555.67
-595.584
5004.45
4499.41
537.831
1252.79
3716.8
3026.59
1175.95
838.485
1279.25
1121.62
1727.41
1436.05
49.5538
-453.89
174.405
241.453
-587.173
-1516.2
-1995.13
-2280.18
-2693.39
-2856.83
-3239.24
-60858.4
128584
1786.12
-113119
129118
6931.49
-43844.4
-129657
105700
10853.5
23218.3
-9573.9
3915.94
9873.27
8910.44
9845.43
2300.51
6458.59
3456.01
-2716.21
-1412.56
7350.04
5912.09
341.777
988.368
2869.61
2099.44
372.744
-131.3
1492.05
475.962
-1244.77
-709.29
-91.6169
-235.21
-1023.59
-1852.13
-2301.72
-2570.05
-2940.16
-3114.6
-3422.59
-27115.9
26983.8
80253.3
44210
-123942
-17742.4
-70171.7
279202
-156997
17583.7
15651.9
10189.8
9321.21
6711.43
16244.9
1983.88
-19016.4
25680.8
7680.77
-4413.11
-8604.08
10920.1
15946.2
-6428.75
-3033.39
8279.17
2312.04
-39.6165
71.523
905.837
-481.429
-1136.41
-313.579
-690.858
-1315.94
-1508.53
-1967.72
-2511.78
-2778.26
-2998.77
-3172.84
-3323.33
-56286.6
-52894.7
110116
35848.4
-64262.1
-69376.5
-1165.48
226124
-23094.5
-61643.2
22188.4
14008.4
32192.9
3069.76
4194.94
7949.43
-15834.4
26324.7
15320.8
-20345.4
2260.38
10511.6
1194.95
-5098.26
5314.58
9077.47
1836.19
-538.462
551.012
-338.241
-60.9558
1082.13
555.155
-766.272
-2158.37
-1592.39
-1897.82
-2571.91
-2938.59
-3132.91
-3251.91
-3146.02
68544.1
132844
-67143.1
-128697
-121085
-127087
482720
-116790
-62688.3
14332.4
24499.1
12689.6
22011.9
9317.47
5685.39
-3424.21
13958
11703.9
-1703.69
-5140.29
3849.55
6438.85
1532.44
726.401
4839.39
5008.21
3105.29
2897.31
-223.724
-3518.75
1697.8
2154.2
-166.817
-598.063
-1933.89
-1768.77
-1499.04
-2139.35
-2977.45
-3117.18
-3148.76
-2930.96
225765
-136025
-119193
-101091
-55866.9
400766
-122692
-156978
-35309.3
156113
-12280.9
20294
13860.9
2585.73
13816.4
11296.5
855.68
6049.9
8876.15
2750.4
-9210.09
5987.96
9468.03
2678.28
-2198.45
1340.67
5442.08
3338.42
-646.876
-1140.2
1418.15
1317.67
253.045
-931.542
-1498.73
-1835.77
-1636.22
-2208.2
-2923.19
-2815.32
-2741.61
-2645.52
131444
-83406.4
31718.6
-57152
-55845.1
128523
54941.9
-46045.9
-102833
125353
1101.96
1874.44
13300.4
4715.84
14278.9
58.0033
-14186
27574.1
9592.23
-4303.37
-14244.8
13006.6
10756.7
1597.56
-2531.38
1663.15
5300.1
3309
564.343
-579.838
-1288.27
-27.1467
1083.08
-427.686
-1333.19
-1560.9
-1684.67
-2186.88
-2749.15
-2653.4
-2269.97
-2476.81
207323
-184283
5737
-6673.45
-25866
122783
37931.1
-98418.8
-144136
141738
-2562.41
14311.5
20718.2
-3352.59
8081.14
2183.85
-32665.4
47493.1
10507.6
-14482.1
-13343.8
14641.3
8730.5
-2535.65
-2795.82
3068.21
3593.57
2767.72
1361.72
377.742
-1981.78
-543.2
2161.88
-193.551
-1089.54
-1219
-1165.6
-1435.77
-2025.12
-2426.75
-2382.32
-2750.9
15507.3
26810.2
-65490.6
-7522.98
-85547.5
530354
-386320
-72322.4
-89956.6
312248
-107368
16737.8
-16723.5
-7702.78
5526.12
3811.1
-15338.1
19816.4
9935.12
-9353.06
1246.31
11080.5
5593.92
-2185.92
-1049.99
2889.76
2716.36
2380.6
1521.47
-960.793
-1266.15
1337.09
1900.03
494.799
-429.533
-926.343
-1038.45
-1011.1
-1574
-2090.17
-2315.9
-2823.03
-54714.5
-82216.7
257932
72853.9
-106748
-14508.2
-24949.5
12290.2
-14781.3
-52565.7
46737.3
22572.7
433.528
-2031.53
9972.59
-2998.65
-5272.88
8178.21
3546.8
-4033.13
741.208
4763.19
3656.62
2359.78
1138.35
-194.882
1261.99
2805.51
2781.98
-1661.22
-1007.07
2732.14
1450.85
1066.39
29.7201
-831.689
-1005.97
-1042.71
-1532.6
-1890.24
-2159.08
-2236.31
-115378
-285943
278723
98503.4
-68994.6
-100634
-94423.9
290070
-76334.6
-121418
69422.4
-27373.4
6120.64
20965.5
-2615.12
-17281.1
-12996.4
22714.4
9021.74
-5235.76
-1883.53
-1685.59
6223.6
6680.16
1983.13
-3287.57
-1329.11
2177.05
-717.098
-946.602
2201.89
1275.67
661.975
530.726
11.3181
-471.32
-597.064
-756.389
-1146.38
-1492.25
-1899.42
-1347.19
-70.3398
85119.1
104661
-274958
-300835
39768.7
577868
-258870
-91801.4
-26347.1
63870.3
-29874.1
14276.6
9748.11
-9335.13
-14514.3
-7104.6
-2865.19
11105.6
-820.169
-6069.32
-10643.1
11949.8
9915.13
205.281
-2833.16
479.483
1910.46
-3312.47
-1280.89
3691.87
385.666
-546.334
-60.529
82.3658
254.523
36.1359
-204.8
-575.194
-1030.89
-1540.33
-634.54
210764
135548
-240161
-85694
-22674.2
-107020
160207
79244.2
16250.8
-85630
-35925.3
5826.32
-7285.06
4466.1
-11254.5
5424.1
-126.854
-21016.8
21405.7
6724.87
-19213.3
-7516.85
9133.2
4843.35
-3998.35
-990.878
3918.48
-1562.93
-1948.72
3102.47
3005.4
611.971
-741.005
-448.987
-126.298
168.98
89.8635
75.2126
-262.773
-667.666
-971.217
-15.7767
-44799.9
131487
141114
526.57
98083.1
-85064.8
-162132
-31973.9
47188.6
72913.8
-152202
11397.2
-19057.3
2923.13
8758.78
-1810.99
-14339.2
10713.1
3930.19
-5582.07
-7971.9
1995.47
3148.25
-3049.77
-1823.81
2450.69
1322.74
-1783.54
-133.023
2706.69
1156.6
239.373
-150.537
-417.708
12.1025
289.563
347.368
380.392
52.6889
-48.4949
3.41488
677.757
-272737
165101
269545
29176.7
-51446.6
-117715
-129612
190233
-66267.2
1926.42
-87967.2
11391.5
-20116.1
7558.47
-3459.03
-5133.61
-1435.73
3220.9
-1593.39
-17710.7
13547.3
8025.74
-11332.1
-7894.02
5160.58
2284.06
-3027.62
-907.656
2455.48
-72.068
-800.914
253.607
389.423
49.4593
185.924
400.992
790.627
875.794
593.725
794.497
987.184
1220.93
-282463
147575
210059
352411
-444713
-171903
-114003
460721
-133485
-91751.6
-1389.19
-5252.61
-28251.4
24143.3
-3886.37
-29030
39043.9
-2971.04
-34314.7
-5686.11
13710.1
1686.46
-13312.8
741.581
7934.33
-1604.24
-3464.62
1798.14
2496.45
-888.242
-1536.65
-221.43
312.082
386.052
478.911
575.638
849.024
1073.73
1161.83
1569.79
1617.93
1614.04
-81237.2
27761
76292.1
381189
-387594
-147127
-142861
446969
-118378
-135969
82697.4
-19941
-315.643
11557.8
-8168.96
-11084.1
21838.6
-1058.77
-31621.8
4942.62
9391.52
-2791.01
-11231.8
2332
5341.57
-2000.73
-3829.61
212.568
1928.99
-206.804
-1549.34
-737.484
226.913
-11.8474
333.627
618.665
649.234
1027.96
1612.99
2164.37
2015.56
2232.58
11987.5
-398176
365596
46305.5
-59067.3
-107628
-32063.8
300193
-66748.8
-103483
-29583.1
34406.3
24409.6
7047.5
-14317.9
-10674.1
18457.7
66.9665
-18183.5
-9540.88
8354.04
3924.95
-11693.1
-623.708
5252.17
-1104.53
-5224.75
-1100.79
805.397
-2506.58
-3063.35
-232.57
1051.56
-33.8945
360.215
424.939
292.956
822.869
1856.03
2723.29
2506.9
3122.07
29986.3
-88693.2
254641
-211091
-300024
75981.2
507132
-108592
-97942.7
-37069.3
-19651.8
34334.6
33149.9
-2355.11
-7616.67
-12225.4
10762.3
3000.99
-18203.1
3111.7
3859.56
-8155.93
-7045.61
1321.19
2346.85
-4495.86
-3057.28
1667.08
854.69
-3942.12
-4040.89
186.869
-771.582
-456.048
455.21
942.715
1096.27
1088.08
1800.39
2797.11
2853.66
3908.58
193079
62098.8
-340014
-951.325
-67976.9
-77749.6
382536
-244936
-75293.8
250637
-85217.8
-29353.6
30889.7
-39262.3
-3620.97
7554.26
2840.88
-3311.96
2527.52
-4844.56
-10451.8
-1164.57
1322.78
-876.356
-6937.8
-4491.58
505.248
-141.157
-3081.21
-2620.34
699.941
-155.976
-919.633
-768.223
-558.349
264.618
1418
1778.91
2204.58
2814.52
2985.61
4273.38
43129.4
-145909
-270701
46115.2
74919.2
417498
-255823
-80885.5
160082
-102471
49556.5
28587.2
-33922.2
-18290.6
11504.5
4336.09
-1140.25
-2206.09
3784.43
137.757
-19278.5
10290.5
5170.05
-6866.22
-11043.1
-123.586
1484.64
-3759.17
-6763.93
-2256.57
1453.55
-692.36
-345.979
-127.517
-583.425
217.706
1211.41
1875.65
2513.38
2956.9
3021.72
4124.64
-136601
187966
122672
-262329
587070
-472599
-197721
-138077
510496
-90250
-44220.5
-637.089
-47884.1
17566.3
6355.7
-12327.3
-5111.83
7594.57
29.9818
-4113.95
-9553.04
711.84
3716.51
-1934.41
-7586.93
-3797.89
-340.917
-2289.95
-5066.12
-2601.61
-81.3223
-1740.69
-1530.24
-326.461
-18.8657
1009.17
1184.49
1513.41
2463.06
2994.89
3040.71
3664.46
-333115
153653
312857
261391
-453155
-187512
833.578
383563
-157602
7837.41
-14538.5
-14618.6
-25868
24257.9
-12496
-24387.7
14968.6
5770.46
-14312.7
-6283.99
-438.708
-5928.56
1434.86
263.271
-6937.17
-6340.37
-1357.47
-1262.97
-3928.8
-1401.14
810.817
-1571.39
-1473.14
158.141
944.778
1493.66
1456
1247.66
1807.05
2649.46
2954.93
3209.24
-56701.8
-234109
87354.2
272985
-104845
-149763
-110393
411793
-197146
-48166.3
69916.1
-24773.6
13399.4
-6626.42
-17662.7
-4567.89
6647.43
-1901.98
-8028.06
-950.039
-4685.39
-14892.3
7747.15
4125.74
-8153.55
-7300.19
1079.57
-932.896
-3169.85
179.451
1076.82
-671.345
-553.337
1161.36
1579.71
1524.53
1385.74
1086.39
1612.15
2245.39
2662.58
2766.38
93730
78742.3
215600
-436330
-73410.1
-98022.5
747426
-347943
-144397
31387.4
-8354
-7336.71
43880.5
-21035.1
-22711.2
16665.9
2151.98
-26335.3
30122
-4091.46
-22141.9
-13689.9
12890.1
3798.21
-7275.76
-4804.08
2513.88
-693.226
-1062.16
1250.76
684.399
52.4635
105.458
1313.16
1094.97
789.197
1088.21
1317.08
1744.4
2032.21
2185.57
2005.79
336425
-240192
-82382.8
-112670
10832.5
608638
-436966
-37124.4
-121430
79733.9
-9564.13
23258.1
-7195.21
-12104.3