/*--------------------------------*- C++ -*----------------------------------*\
| =========                 |                                                 |
| \\      /  F ield         | OpenFOAM: The Open Source CFD Toolbox           |
|  \\    /   O peration     | Version:  2412                                  |
|   \\  /    A nd           | Website:  www.openfoam.com                      |
|    \\/     M anipulation  |                                                 |
\*---------------------------------------------------------------------------*/
FoamFile
{
    version     2.0;
    format      ascii;
    arch        "LSB;label=32;scalar=64";
    class       volScalarField;
    location    "0.013";
    object      ddt0(rho);
}
// * * * * * * * * * * * * * * * * * * * * * * * * * * * * * * * * * * * * * //

dimensions      [1 -3 -1 0 0 0 0];

internalField   nonuniform List<scalar> 
8988
(
-0.204791
-0.064971
0.0186125
0.228926
0.134076
-0.362348
-0.199204
0.0962954
0.122389
0.0373302
-0.0209427
-0.0776827
-0.0206088
-0.0047075
-0.0117896
-0.0283132
-0.0218019
-0.012841
-0.0118446
-0.0114169
-0.00975277
-0.00849218
-0.00845051
-0.00897339
-0.0110734
-0.0102096
-0.00871465
-0.0090663
-0.0080907
-0.00483502
-0.0021996
0.000968689
0.00325029
0.00437982
0.00482802
0.00550197
0.00694234
0.00880756
0.0107004
0.0123706
0.0137325
0.0146073
-0.919988
0.0958276
1.16612
-0.560713
-0.900086
1.38676
0.229375
-0.78786
-0.522732
0.133169
0.403778
0.0577253
-0.364234
-0.057011
0.0198583
0.00747951
-0.0547365
-0.035498
-0.018584
-0.0163544
-0.0196666
-0.0169039
-0.012664
-0.0158278
-0.0173822
-0.0147161
-0.0127665
-0.0111098
-0.00988028
-0.00660285
-0.00137081
0.00386726
0.00719327
0.0087914
0.0111908
0.0141661
0.0173806
0.0203119
0.0225956
0.0243956
0.0257995
0.0271941
-1.45578
0.399004
2.08865
0.81931
-3.17102
-0.865669
2.50303
0.610286
-1.70957
-0.29316
0.697496
0.114844
-0.383109
-0.0565016
0.0143707
-0.0552107
-0.0572407
-0.0302131
-0.0263812
-0.0378768
-0.0391544
-0.0363271
-0.0352868
-0.0353756
-0.03269
-0.027689
-0.0236714
-0.0218308
-0.0198542
-0.0150569
-0.00736534
0.000389492
0.00547361
0.00870992
0.0126293
0.017837
0.0234811
0.0281086
0.0313804
0.0342733
0.0370269
0.0395671
-2.37365
0.420171
1.56994
1.12524
0.14642
-2.28383
-0.378266
1.59841
0.167944
-0.92176
0.138033
0.165457
-0.110457
-0.0518688
-0.0373807
-0.0265608
-0.0194063
-0.0265484
-0.0333644
-0.0322926
-0.0345154
-0.0380576
-0.0365709
-0.0325451
-0.0285417
-0.0252865
-0.0237613
-0.0227456
-0.021028
-0.0186801
-0.0144573
-0.00913082
-0.0040745
0.000712877
0.00704819
0.0154055
0.0241823
0.0313311
0.0343793
0.0386332
0.0428475
0.0465878
-0.998689
-0.0237252
-0.84289
2.23362
1.32425
-1.83513
-1.00213
0.483302
1.02845
-0.406895
-0.506889
0.187387
0.043498
-0.0518849
-0.0331278
-0.0112605
-0.00881208
-0.0220063
-0.0265124
-0.0245171
-0.0249779
-0.0296501
-0.0299552
-0.0263834
-0.022608
-0.0214433
-0.0222759
-0.0215084
-0.0182372
-0.0151437
-0.0138912
-0.013497
-0.0119406
-0.00798586
-0.00117308
0.00807755
0.0176934
0.0254785
0.031864
0.0395393
0.0441547
0.0477013
0.32335
-0.0442365
-1.79496
-0.449502
3.16492
1.35473
-3.44568
-0.721742
1.86566
0.350818
-0.745075
-0.00296169
0.029944
0.0439926
0.0859806
-0.0712155
-0.0854014
0.0188478
0.027707
-0.0149197
-0.0262953
-0.0150386
-0.0123471
-0.0148327
-0.0156529
-0.0139857
-0.0154506
-0.0170776
-0.0147726
-0.0117542
-0.0122157
-0.0148801
-0.0157624
-0.0132252
-0.00829278
-0.00192153
0.00545219
0.0128858
0.0201089
0.0272321
0.0348078
0.0400984
2.02215
-0.253425
-1.42741
-1.46245
-0.261473
2.57431
0.586569
-2.12244
-0.364482
0.953182
0.214694
-0.240072
-0.114903
0.0194177
0.231394
0.0280182
-0.131205
-0.0327139
0.0630839
0.019114
-0.0147612
-0.00772919
0.00656677
0.00216517
-0.0046699
-0.00431178
-0.00356545
-0.00610825
-0.00690921
-0.00637966
-0.00837818
-0.0117771
-0.0131645
-0.0120453
-0.0100907
-0.0081122
-0.00546775
-0.00182228
0.0026941
0.00809312
0.0147588
0.019581
1.6211
-0.164309
0.00203772
-1.69068
-0.952578
0.732562
1.74445
-0.389982
-1.2005
0.29524
0.532816
-0.0361881
-0.179397
-0.074002
0.20188
0.187019
-0.0891332
-0.108735
0.0723177
0.08385
0.00906257
-0.00617508
0.0219809
0.0223628
0.0111251
0.00715789
0.00984832
0.00788359
0.00378912
0.00145017
-0.00122605
-0.00427569
-0.00595551
-0.00680818
-0.00828572
-0.0106246
-0.0131233
-0.0152325
-0.0164236
-0.0160046
-0.0140095
-0.0114911
-1.57308
0.00539361
0.585489
1.93506
0.848516
-1.94785
-0.762404
0.871451
0.631884
-0.261238
-0.10325
0.175679
0.124837
-0.144643
0.0391946
0.2391
0.00419195
-0.0826183
0.0495165
0.0985574
0.0364314
0.00774693
0.034002
0.0412215
0.0290962
0.0215023
0.0237983
0.0224089
0.0164898
0.0121702
0.00896386
0.00525368
0.00155622
-0.00251311
-0.00759862
-0.0135914
-0.0203178
-0.0276155
-0.034819
-0.0407812
-0.0450782
-0.0465582
0.919973
-0.10144
-1.56181
-0.498431
2.06784
0.958785
-1.3494
-0.619179
0.659124
0.387901
-0.246732
-0.0528003
0.312496
0.0752098
-0.114085
0.0809185
0.181337
0.026253
-0.0194422
0.0732814
0.0867374
0.0487903
0.0346551
0.0526147
0.0514999
0.0406163
0.0369429
0.0360149
0.031118
0.0250219
0.0198569
0.0142437
0.00753655
-0.000234602
-0.0089961
-0.0186323
-0.029256
-0.0407894
-0.0527551
-0.0639871
-0.0732756
-0.0780384
1.48942
-0.244239
0.00134038
-1.28186
-0.761709
1.29385
0.995024
-0.535245
-0.53247
0.46238
0.264953
-0.234432
0.0847999
0.331344
-0.0712787
-0.0598069
0.225179
0.138478
0.000550818
0.0276359
0.110174
0.0842306
0.0511676
0.0578755
0.0675009
0.0576293
0.0480554
0.0468276
0.0429155
0.0351153
0.0274048
0.0194403
0.0098112
-0.00123089
-0.0133091
-0.0263387
-0.0402375
-0.0546294
-0.0691247
-0.082802
-0.093926
-0.100262
-1.18581
0.449363
-0.132695
1.4708
1.00041
-1.11709
-0.611082
0.788722
0.262535
-0.185357
0.305564
-0.0385623
-0.00865232
0.344682
-0.00150837
-0.0397046
0.227962
0.128309
0.0108044
0.0600825
0.130013
0.0889648
0.0590226
0.0729142
0.0791861
0.0674257
0.0575657
0.0557619
0.049797
0.0397951
0.030149
0.0198542
0.00767402
-0.00572104
-0.0200749
-0.0352618
-0.0509256
-0.0664904
-0.0814514
-0.0950301
-0.105615
-0.112282
1.74374
-0.270319
-1.64634
-0.642824
1.55755
1.20535
-0.993008
-0.318787
0.573518
0.0754624
0.068291
0.0531325
0.155077
0.16036
0.0108492
0.100764
0.159174
0.0738877
0.071567
0.121459
0.0999663
0.0769919
0.0844716
0.0890153
0.0794201
0.0701268
0.0666179
0.059525
0.0489754
0.0392654
0.0286746
0.0165436
0.00242774
-0.0124751
-0.0274939
-0.0429018
-0.0585083
-0.0738554
-0.0883881
-0.101541
-0.110089
-0.115719
3.21948
-0.731066
-3.09561
-0.803297
1.96961
2.28265
-1.06894
-1.57602
0.968869
0.466032
-0.191467
0.163728
0.223658
0.0322338
0.0894066
0.164892
0.0944106
0.0880207
0.121939
0.103416
0.0885887
0.0952775
0.0958666
0.0859301
0.0765415
0.0735384
0.0677397
0.0571386
0.0463901
0.0355019
0.0234699
0.0103995
-0.00356217
-0.0181388
-0.0329049
-0.0475071
-0.0621118
-0.0768255
-0.0904128
-0.101169
-0.109079
-0.113837
1.99026
-0.311229
-0.590491
-0.995186
-0.26641
1.40429
0.140725
-0.644774
0.445567
0.254479
-0.049064
0.229502
0.0765681
0.0312959
0.201819
0.118825
0.0674583
0.123543
0.114118
0.0898189
0.0962465
0.100393
0.0897756
0.0778694
0.0747229
0.0704869
0.0603612
0.0501164
0.0406201
0.0299123
0.0179228
0.00501184
-0.00834315
-0.0217537
-0.0352584
-0.0487241
-0.0618606
-0.0745695
-0.0862401
-0.0958674
-0.103219
-0.10911
-0.174071
0.308125
-1.54588
1.10678
2.02809
-0.625555
-1.12256
0.732143
0.472738
-0.177117
0.12809
0.20446
0.0306656
0.144287
0.161434
0.0735441
0.107667
0.120999
0.0908361
0.09469
0.100494
0.0888128
0.0776274
0.0738417
0.0704726
0.0603625
0.0508978
0.0447334
0.0370479
0.0262835
0.0136842
0.000499199
-0.0118562
-0.0232875
-0.0348016
-0.0465732
-0.0579928
-0.068802
-0.0786711
-0.0871807
-0.0937418
-0.100032
2.63826
-0.727623
-2.80865
-0.454514
2.20224
1.61259
-1.15183
-0.910139
0.769948
0.213763
-0.0156285
0.0919898
0.0959524
0.147013
0.0757744
0.0844815
0.118869
0.0843074
0.0809336
0.0947794
0.0854722
0.0740019
0.0714771
0.070933
0.0628216
0.0524215
0.0456817
0.0393832
0.0319155
0.0238218
0.013066
4.78959e-05
-0.0118349
-0.0217904
-0.0314619
-0.0416857
-0.05188
-0.0613085
-0.0694189
-0.0763455
-0.0818825
-0.0874916
0.561956
-0.346844
1.32775
-0.521506
-1.53179
0.471912
1.02885
-0.137393
-0.245715
0.235707
0.116151
0.0241945
0.120257
0.0693496
0.0587866
0.108406
0.0700399
0.0602685
0.0858969
0.0737342
0.0610796
0.0633543
0.0685343
0.0637291
0.0527756
0.0483226
0.0453951
0.0364581
0.0267943
0.0195371
0.0108791
0.000467605
-0.00903311
-0.0175258
-0.0261047
-0.0349785
-0.0437844
-0.0518979
-0.0586448
-0.0643012
-0.0689732
-0.0731902
2.83553
-0.499108
-2.15213
-1.13072
1.08835
1.52286
-0.404314
-0.978774
0.522651
0.241828
-0.081011
0.102097
0.0790473
0.029927
0.0984129
0.0692411
0.0323403
0.0684882
0.0703951
0.0496243
0.0507372
0.0567526
0.0563253
0.0463365
0.0401365
0.0401616
0.036477
0.028201
0.0219174
0.0169981
0.0103894
0.00342784
-0.00326439
-0.0112938
-0.0201185
-0.0279839
-0.0348989
-0.0414532
-0.0472965
-0.0521648
-0.0559572
-0.0583718
3.76853
-0.623908
-1.22476
-3.25894
-1.21769
3.87965
0.950573
-1.84247
-0.11331
0.583372
-0.0849352
0.0617382
-0.0113353
0.0179544
0.119919
0.0321847
0.0328209
0.0684453
0.0377936
0.0347319
0.0493706
0.0472339
0.0389332
0.0346784
0.0390352
0.0374001
0.0264476
0.0181299
0.0154029
0.0129031
0.00937355
0.00624274
0.00189182
-0.00537043
-0.0135303
-0.0201122
-0.0256031
-0.0313475
-0.0368594
-0.0407321
-0.0426449
-0.0427355
-0.487505
0.50019
2.36864
-0.455335
-3.27134
-0.931355
2.74421
0.703701
-1.26753
0.107445
0.307819
0.066752
-0.089996
0.0672991
0.123878
0.0222118
0.0221357
0.0293514
0.0241351
0.0299438
0.0210398
0.0145628
0.0181022
0.0311459
0.0351331
0.0220016
0.0117433
0.0134206
0.0163428
0.0141057
0.0110142
0.00856809
0.00435962
-0.00173621
-0.00762519
-0.012239
-0.016604
-0.0218485
-0.027032
-0.029739
-0.02929
-0.0270078
-1.93624
0.278848
0.461576
2.54724
0.647933
-2.33608
-0.733856
1.36737
0.302876
-0.53032
0.180887
0.0496523
-0.0971191
0.0910125
0.0622659
-0.0116179
-0.0320797
-0.00127355
0.051708
0.016733
-0.0187531
-0.0142949
0.0138662
0.0387261
0.0263361
0.00361344
0.00213123
0.012597
0.0165904
0.0141927
0.0119643
0.00972448
0.00645487
0.0027376
-0.00128547
-0.00561698
-0.00991784
-0.0138799
-0.0170521
-0.018133
-0.0165661
-0.0138221
3.25845
-1.58202
-4.25527
-0.199816
4.11372
0.81365
-2.43594
-0.383682
1.01279
-0.257406
-0.0842146
0.0296603
0.0274296
0.025653
-0.0323689
-0.00954321
-0.0525772
-0.0164278
0.052385
-0.00686876
-0.0351517
-0.014287
0.0169688
0.0275454
0.00486849
-0.00691074
0.00224284
0.0119112
0.0134505
0.0132791
0.0120974
0.00900252
0.00706164
0.00686793
0.00550647
0.00156136
-0.0030442
-0.00596202
-0.00687819
-0.00653028
-0.0055584
-0.00472917
1.31247
-1.94079
-3.12299
0.274738
5.48847
0.189424
-3.99876
0.0604645
1.7428
-0.390992
-0.351362
0.130346
0.0491507
-0.0247983
0.00522931
-0.0323642
-0.0564801
0.0184967
0.0097404
-0.0410541
-0.0251843
0.00385332
0.00213893
-0.0103209
-0.0164753
-0.00574127
0.00373
0.00339413
0.00441397
0.00935812
0.0114474
0.0103374
0.0100341
0.0107722
0.0102253
0.00772978
0.00520478
0.00419047
0.00409669
0.0036772
0.00240399
0.000664775
1.89271
-1.00751
-2.71398
-0.264544
2.2845
1.48347
-1.75818
-0.764722
0.622641
0.11346
-0.209182
-0.0390937
-0.0269292
0.00904254
-0.0258109
-0.122849
-0.0191892
0.0326501
-0.0787845
-0.0793352
0.00332934
0.0107245
-0.0217019
-0.0342191
-0.0124752
0.00771656
0.00102935
-0.00850281
-0.00428545
0.00351779
0.00697941
0.00921772
0.0118592
0.0138491
0.0145152
0.0138665
0.0135358
0.0142997
0.0144105
0.0122631
0.00827053
0.00453885
-1.07952
0.377619
2.84642
-0.481167
-3.25834
-1.07101
2.56129
0.64875
-1.33056
0.0979512
0.248968
-0.197218
-0.0881134
0.140617
-0.133607
-0.158645
0.124984
0.0138516
-0.125759
-0.0452653
0.0511814
-0.0149407
-0.0639611
-0.042266
-0.00733181
0.000216356
-0.0161247
-0.0153634
-0.00378356
-0.000542257
0.000993638
0.00784114
0.0131797
0.0150501
0.0172067
0.0198391
0.0219628
0.0229086
0.021633
0.0181282
0.0134484
0.00971394
1.59916
-0.893725
-2.19622
-0.475287
1.80389
1.70768
-0.831089
-1.79187
0.535672
0.491414
-0.130964
-0.173295
-0.0498108
0.137951
-0.160615
-0.0980388
0.116572
-0.112448
-0.142223
0.0374879
0.0319616
-0.0614254
-0.0804315
-0.0176046
0.00814404
-0.0213683
-0.0387354
-0.0190365
0.000315623
-0.0026615
-0.00272511
0.00706968
0.0134169
0.0150109
0.0184789
0.0239524
0.0281438
0.0287564
0.0261902
0.0226939
0.0193467
0.016962
1.27738
0.00452334
0.656352
-2.59471
-1.17018
1.36509
1.4349
-0.643189
-1.01895
0.373125
0.154218
-0.297528
-0.0686248
0.070334
-0.164114
-0.00559957
0.0523237
-0.135851
-0.0757057
0.0793321
-0.0304879
-0.09822
-0.0648271
-0.00170248
-0.00479213
-0.0397738
-0.0391975
-0.0125556
-0.00347302
-0.00977368
-0.00473687
0.00715777
0.0128588
0.0144255
0.0185295
0.0255213
0.0312544
0.0320029
0.0294468
0.0276791
0.0271325
0.0266632
-1.8322
0.578363
3.53038
-0.0156995
-3.19742
-0.852164
1.11374
1.39975
-0.798369
-0.490321
0.308733
-0.0847599
-0.0306657
-0.0347334
-0.131009
0.0417474
-0.0485141
-0.127301
-0.00868796
0.00879256
-0.0795675
-0.0890631
-0.03832
-0.0228737
-0.0430209
-0.04783
-0.0270259
-0.00924063
-0.0122841
-0.0150961
-0.00722791
0.00293547
0.00938314
0.0135452
0.0180119
0.0240149
0.0298882
0.0328349
0.033608
0.0350686
0.0373131
0.038684
2.74522
-2.03211
-2.7822
-0.578151
3.31372
0.286789
-2.12226
0.313329
0.756754
-0.535205
-0.106022
0.0320259
-0.0239909
-0.132972
-0.0771984
0.042247
-0.0808693
-0.12384
-0.0489783
-0.0358736
-0.0411942
-0.0340922
-0.0404097
-0.052149
-0.0475945
-0.0331805
-0.0214601
-0.0218492
-0.0225746
-0.0177122
-0.0115364
-0.00592108
0.000434446
0.00778193
0.0154601
0.0222634
0.0274283
0.0323467
0.0384742
0.0448174
0.0493434
0.0515858
1.44984
-2.73454
-2.69688
0.831202
4.23972
-0.177111
-2.78521
0.291475
1.04191
-0.386822
-0.217692
-0.0205274
-0.0114447
-0.103965
-0.0093069
-0.0171446
-0.127651
-0.0927245
-0.0453832
-0.0411846
-0.0313819
-0.0339977
-0.0452454
-0.0385943
-0.0221606
-0.0273079
-0.0432519
-0.0451943
-0.02966
-0.0153586
-0.0106769
-0.00910016
-0.00729571
-0.00252197
0.00762967
0.0191297
0.0268038
0.0333476
0.0432945
0.0542378
0.060937
0.0634787
-3.18639
2.21467
-1.33474
3.36536
1.45341
-3.51181
-0.678882
1.30484
0.170324
-0.606539
0.104514
-0.0471347
-0.0559722
-0.0241969
-0.00100813
-0.0264744
-0.0505787
-0.0799629
-0.0898198
-0.0444053
-0.0211893
-0.0510412
-0.0529613
-0.0205872
0.00105848
-0.0241058
-0.0576498
-0.0597849
-0.0408943
-0.0219205
-0.0118172
-0.00878194
-0.0108116
-0.00982264
0.00011983
0.0152526
0.0276989
0.0368518
0.0479843
0.060663
0.0691183
0.0726694
-1.63516
0.292409
-1.84298
1.90495
3.40474
-1.81273
-2.56577
0.793276
1.47184
-0.678658
-0.19772
0.0894623
-0.0425532
-0.0762166
-0.030565
-0.0046939
-0.0418421
-0.0517889
-0.0147887
-0.0201119
-0.0656896
-0.0718515
-0.0363052
-0.0133903
-0.022991
-0.0350999
-0.0372247
-0.0396614
-0.0432618
-0.0375454
-0.0246282
-0.0160773
-0.0137111
-0.0100164
-0.00089746
0.0129326
0.0275455
0.040103
0.0519909
0.0637445
0.0724622
0.0778065
-3.09389
0.584808
4.99189
0.405768
-3.8791
-2.1737
2.59441
1.14351
-1.00491
-0.150263
0.154235
-0.083758
-0.0188563
-0.0700474
-0.0695621
0.0192801
-0.0912829
-0.0924977
0.0130365
-0.042042
-0.100561
-0.0530296
0.0090051
-0.0280384
-0.0655813
-0.0529677
-0.0253345
-0.0211583
-0.0379136
-0.037933
-0.0287361
-0.023965
-0.0180359
-0.00690428
0.00424824
0.0145025
0.0266406
0.0403692
0.0535726
0.0645921
0.0727476
0.0790611
-3.09827
0.834253
6.74946
-0.340425
-6.72102
-1.71418
5.48119
0.666239
-2.34927
-0.203635
0.378821
-0.124188
-0.0384929
-0.101289
-0.0415006
0.0164224
-0.112734
-0.0646602
0.0233545
-0.0628404
-0.104312
-0.0504009
-0.0188726
-0.0568146
-0.067643
-0.0363682
-0.0195865
-0.0273106
-0.037776
-0.0296115
-0.0226883
-0.0242317
-0.017751
-0.00194319
0.0108161
0.0171226
0.0262548
0.039666
0.0527884
0.0629508
0.0695203
0.0757484
0.402586
0.723041
2.55538
-3.8918
-3.22184
1.6802
3.31239
-0.313576
-2.22689
0.518663
0.241239
-0.187027
-0.0477486
-0.103924
-0.123566
-0.0630004
-0.0919005
-0.0598141
0.0329396
0.015085
-0.0699352
-0.0945364
-0.0650145
-0.0433433
-0.0382899
-0.0354847
-0.03596
-0.0389651
-0.0341734
-0.0201678
-0.0178437
-0.0206648
-0.00937208
0.00693621
0.0149343
0.0184016
0.0266137
0.0390562
0.0501889
0.0581753
0.0634896
0.0685503
4.22171
-0.676976
-5.51346
-0.623447
0.289196
4.95712
0.376466
-4.55219
-0.0429844
1.58782
-0.162309
-0.445226
-0.0112834
0.0590267
-0.187917
-0.0752721
0.027442
-0.0518964
-0.00909017
-0.00109653
-0.100478
-0.108352
-0.0265987
0.0088391
-0.0323364
-0.0548256
-0.0396717
-0.0297737
-0.0259855
-0.021684
-0.0220488
-0.0184302
-0.00228271
0.0137833
0.0185084
0.0210575
0.0298975
0.0407673
0.0473554
0.0513944
0.0546221
0.0575972
0.314119
-3.15295
-1.54725
-0.033643
7.43305
0.773185
-5.9441
-0.819923
1.98876
0.450326
-0.54773
-0.16031
-0.00955316
-0.0298102
-0.137388
0.037394
0.0351957
-0.0742308
-0.0360308
-0.0571276
-0.103698
-0.0572683
0.0143277
-0.00701317
-0.0581142
-0.0535347
-0.0205115
-0.016284
-0.024215
-0.0277418
-0.0236765
-0.00906699
0.00943533
0.0194264
0.0204491
0.0216748
0.0298971
0.0389601
0.0432721
0.0445252
0.0443776
0.0438836
-4.81893
2.03077
0.0543423
4.98488
1.42612
-5.19146
-2.15497
2.43187
1.04089
-0.923995
-0.0438212
0.00761269
0.0616495
-0.0468139
-0.146004
0.0187627
-0.0206442
-0.0949765
-0.0507734
-0.0361077
-0.0207761
0.013285
-0.0121396
-0.0695018
-0.0706914
-0.0220222
-0.00725755
-0.0249566
-0.0257176
-0.012064
-0.00576522
0.00175617
0.0138543
0.0215661
0.0214877
0.0203479
0.0245315
0.0311418
0.0353961
0.0361556
0.0341069
0.0316343
-0.81085
0.287078
3.16875
-1.94302
-2.13911
0.266662
2.36
-0.413247
-1.56912
0.571738
0.326941
-0.344127
0.186223
-0.0930296
-0.179937
0.0867128
-0.100749
-0.123981
0.0732884
0.0168553
-0.0830387
-0.0575996
-0.0144578
-0.0381363
-0.0421761
-0.00601146
-0.008075
-0.0365988
-0.0241868
0.012483
0.0222005
0.0147025
0.0134327
0.0205497
0.0207652
0.0160083
0.0167557
0.0216133
0.0246165
0.0245647
0.0226929
0.0215771
4.44303
-0.942203
-6.73808
-0.75186
2.61359
4.39046
-0.952337
-4.42546
0.825702
2.07032
-0.78775
-0.352105
0.232184
-0.150595
-0.00143954
0.116207
-0.204905
-0.0982938
0.192974
0.0361968
-0.157819
-0.126951
-0.0105641
0.0293161
0.0188101
0.00400859
-0.0294349
-0.0406797
-0.00165706
0.0351497
0.0297803
0.00749523
0.00662785
0.0197977
0.019072
0.0119986
0.0122427
0.0144363
0.0129
0.0105585
0.0100094
0.0121457
-1.10816
-1.58065
-1.47261
2.43658
4.7378
-1.76331
-4.04079
0.593204
2.5088
-0.597551
-0.985867
0.511742
-0.00475933
-0.15715
0.153116
0.0701977
-0.204452
-0.0590456
0.145418
0.0191766
-0.108028
-0.0777949
0.00918165
0.0529721
0.0369636
-0.0124907
-0.0457131
-0.0194058
0.0300659
0.0419599
0.0189944
-0.00428363
-0.000959286
0.0089569
0.00746722
0.0068831
0.0107075
0.00923864
0.00275535
-0.00151342
-0.000808829
0.00322543
1.40322
0.220439
0.420529
-2.81861
-1.32246
2.65386
1.2528
-1.19368
-1.02509
0.63345
0.393215
-0.190814
-0.0574264
0.0298186
0.0383082
0.00722895
-0.0568866
-0.0042772
0.00110647
-0.0533411
-0.0414017
0.0106546
0.0407245
0.0356692
0.00495984
-0.0308415
-0.0264023
0.0173218
0.0401389
0.0227153
-0.00601306
-0.0151032
-0.00387743
0.00200413
-0.0013387
-0.00129577
0.00133081
-0.000884209
-0.00640299
-0.00967739
-0.00836065
-0.00486656
3.28888
-0.0264118
-0.6358
-5.29074
-0.402215
3.74806
2.68487
-2.69855
-1.83802
0.988757
0.853458
-0.529532
0.0483403
0.0411587
0.00969626
-0.00604851
0.0139868
0.0562218
-0.0159968
-0.0236569
0.0468295
0.0616544
0.0183109
-0.00878431
-0.00600743
-0.00150873
0.0100215
0.030184
0.0269044
0.00128176
-0.0193309
-0.0183682
-0.00504379
-3.44032e-06
-0.00492221
-0.0111481
-0.0144424
-0.0156961
-0.0162393
-0.0158198
-0.0135168
-0.0115555
-0.619975
0.614083
3.21517
-0.143273
-5.18632
-1.30644
4.95804
0.801462
-2.01827
-0.401544
0.538491
0.00774184
-0.0468269
-0.0419034
0.0736412
0.0151836
-0.0242185
0.0577052
0.0195466
-0.00515029
0.0526182
0.0747307
0.0321783
-0.00217636
0.00446449
0.02726
0.0360864
0.0248195
0.00288804
-0.0135638
-0.0166898
-0.00995204
-0.00211292
-0.00229409
-0.00922697
-0.0168193
-0.0224382
-0.0254831
-0.0253308
-0.0234172
-0.0211508
-0.0208747
-3.91624
2.00291
0.180418
3.71948
1.16105
-4.94878
-2.02387
4.84457
0.584092
-1.91307
-0.138587
0.664012
-0.0853833
-0.0405418
0.198658
0.0155367
-0.0204578
0.0859149
0.0684575
0.0305126
0.0302281
0.0287367
0.0263792
0.0265735
0.0256589
0.0329008
0.0390672
0.0198651
-0.0075341
-0.0117386
0.000161767
0.00520446
-0.00151568
-0.0128946
-0.0172628
-0.0161115
-0.0201444
-0.0281661
-0.0316474
-0.0312761
-0.0314828
-0.0340984
0.644546
0.690787
1.57373
-3.21307
-1.49955
2.67294
1.79491
-1.50178
-0.871593
0.570634
0.336652
0.00830087
-0.136908
0.0661795
0.0962175
-0.0909853
0.109606
0.162482
-0.0030428
0.0203622
0.0931813
0.0424494
0.0101512
0.0385525
0.0495285
0.0271048
0.0117345
0.00197634
-0.00462648
0.00740964
0.0217033
0.0163371
-0.00579547
-0.0243767
-0.0205751
-0.010845
-0.0155697
-0.0281221
-0.0350471
-0.037341
-0.0412007
-0.0473334
6.21514
-1.58004
-5.02497
-1.96817
-0.868991
7.36495
-0.345742
-4.50706
0.225847
2.09574
-0.346821
-0.192676
0.0482842
0.150819
0.184563
-0.142168
0.104446
0.231687
-0.0593832
-0.0148097
0.180056
0.0426777
-0.0493229
0.0270139
0.0982204
0.030584
-0.0305953
-0.00942964
0.0280228
0.0379849
0.0275783
0.0031534
-0.0213364
-0.0241408
-0.0107875
-0.00685312
-0.0184923
-0.0319726
-0.0367456
-0.0404256
-0.0481705
-0.0576602
0.679321
-2.19956
-2.19137
0.657104
6.31027
0.279892
-5.42176
-0.853493
3.33762
0.789189
-1.29668
0.305857
0.065797
0.0557779
0.0696312
-0.00770164
0.276906
0.0250807
-0.174259
0.0767297
0.225222
-0.00958133
-0.0699713
0.0666793
0.111731
0.00899175
-0.0434128
0.00231066
0.0551534
0.0551791
0.0226647
-0.0149953
-0.030911
-0.0124332
-0.000367469
-0.00624363
-0.0251074
-0.0384116
-0.0383495
-0.0420476
-0.0515297
-0.0620702
4.9437
-2.99158
-5.85531
-0.389908
6.89467
1.17152
-4.63206
0.309151
1.48181
-0.213521
-0.188497
0.145402
-0.20532
0.206948
-0.030495
0.0985069
0.432081
-0.199224
-0.211786
0.239183
0.20496
-0.0843904
-0.0440751
0.137473
0.0607724
-0.038045
-0.00688234
0.0489201
0.0479392
0.034919
0.0150155
-0.010494
-0.0188182
-0.00196943
0.00493086
-0.0128445
-0.0312782
-0.0379404
-0.0376654
-0.0432164
-0.0529792
-0.0608173
2.25152
-2.57616
-3.74009
0.118825
5.47303
3.21077
-3.47938
-3.39265
0.842472
2.36788
-0.00957343
-0.735334
0.11514
0.189164
-0.179101
0.221099
0.319599
-0.297201
-0.210517
0.342483
0.0719815
-0.0826949
0.0304297
0.0906444
0.017235
0.00541038
0.0493846
0.040801
0.0180982
0.0204234
0.0149312
-0.0035753
-0.00482667
0.00691596
0.00310135
-0.0164906
-0.0285678
-0.0317345
-0.0345853
-0.0434443
-0.0530705
-0.05746
2.41313
0.0310467
0.232277
-3.58763
-1.84557
4.9264
1.70672
-3.48947
-1.61834
1.98061
0.755693
-0.71641
0.150907
0.112097
-0.1077
0.14804
0.0953109
-0.0947149
0.0537874
0.143294
0.0322039
-0.00704023
0.0182032
0.0132596
0.0151496
0.0368853
0.0270934
0.00697007
0.0160414
0.030548
0.0209475
0.00108659
-0.000761439
0.00495586
-0.00231928
-0.015485
-0.0215393
-0.0236912
-0.0290967
-0.0398432
-0.0484787
-0.0504357
-2.18495
0.350304
3.06216
1.10716
-1.6128
-2.43031
-1.08708
3.44255
0.586575
-1.61357
0.0554218
0.437862
-0.0430291
-0.0364439
-0.00794596
0.120051
0.0281666
-0.0809551
0.0811825
0.114952
-0.0295547
-0.0566111
0.0288165
0.0834616
0.0556765
0.0123881
-0.0012603
0.00708848
0.017046
0.0199058
0.012153
0.00333727
0.000230995
-0.00281905
-0.00852585
-0.0115131
-0.0127132
-0.0164542
-0.0239462
-0.0334325
-0.0391478
-0.0405347
-3.75447
2.33604
-0.00906673
2.98035
0.321572
-2.98789
-1.25362
2.82596
0.449805
-1.53816
0.458893
0.384519
-0.384328
0.183738
0.0452643
-0.0715943
0.154829
0.0407798
-0.0269525
0.0667352
0.0426755
-0.0208678
0.000220079
0.058723
0.0618048
0.0198086
-0.00024156
0.00538885
0.00906362
0.00333411
-0.00578324
-0.00458413
0.0015689
-0.00122038
-0.0087083
-0.0101658
-0.00843139
-0.0104913
-0.0176357
-0.0251107
-0.0276548
-0.0288849
4.79329
-0.248466
-2.89808
-3.5278
-0.976764
5.91521
2.04164
-3.98273
-2.88988
2.38469
1.80266
-1.4204
0.0597901
0.610641
-0.0517348
-0.339162
0.087575
0.257848
-0.0239564
-0.077552
0.055583
0.0379713
-0.0205611
0.00353653
0.0536195
0.0237576
-0.0128601
-0.00725566
0.0124189
0.00736169
-0.0163431
-0.0169451
0.00190339
0.00585269
-0.00816882
-0.014365
-0.00887748
-0.00440996
-0.00828365
-0.0135477
-0.0148636
-0.0176904
3.68221
-0.351262
-2.29352
-3.07463
-1.52795
6.1871
1.60352
-4.84408
-3.33469
3.90179
1.68354
-1.88545
0.34395
0.47614
-0.187387
-0.245145
0.0539921
0.295201
0.0174366
-0.15724
-0.00836633
0.0650782
-0.00205165
-0.0265899
0.0113382
0.0153402
-0.00770853
-0.00588942
0.0106981
0.00811841
-0.0127676
-0.0129195
0.00572146
0.00614936
-0.0117248
-0.0166295
-0.0065655
0.000288306
-0.00250953
-0.00421661
-0.00302534
-0.00543238
0.882991
0.228789
-0.473567
-0.292981
-1.13508
2.56793
1.30544
-3.90577
-1.41304
2.67874
0.808055
-1.41419
0.6024
0.204004
-0.375868
0.025846
0.177248
0.00591203
3.68362e-05
-0.0188707
-0.075489
-0.0165039
0.0586136
0.0207491
-0.0275864
-0.0182768
0.000269166
-0.00453887
-0.00589796
-0.00193789
-0.00283048
-0.00215623
0.00367568
-0.0024648
-0.0145642
-0.0117763
0.00109552
0.00592194
0.00312951
0.00433068
0.00739145
0.00717068
-2.35272
0.417195
6.13077
1.23618
-7.88784
-1.25603
1.15256
4.58936
-0.239656
-2.41605
0.35709
0.529601
-0.0362721
-0.267406
-0.0510176
0.264938
-0.0485168
-0.200511
0.0481842
-0.00606549
-0.082152
0.0145491
0.0420046
-0.0174729
-0.0210251
0.0216995
0.00913525
-0.0153881
-0.00852375
-0.00172241
-0.00894953
-0.0129118
-0.00722557
-0.00850298
-0.0121444
-0.00418553
0.0076604
0.0108716
0.0102595
0.0131997
0.0166973
0.0184422
-1.50896
1.37649
3.552
0.0731693
-7.83102
-0.502077
4.93269
3.85995
-4.13462
-2.00832
1.38974
0.845864
-0.549239
-0.0830886
0.0654687
-0.0883063
-0.0688516
0.139841
0.029476
-0.111086
-0.00146927
0.0575253
-0.0220129
-0.0534876
-0.0124838
0.0124629
0.00431935
0.00194142
-0.00844843
-0.0253984
-0.0242235
-0.00705996
-0.000284061
-0.0106546
-0.013253
-0.00113986
0.0120831
0.0157679
0.016323
0.0202781
0.0248035
0.0269629
-5.80737
3.34504
6.72611
0.791805
-4.17013
-4.98263
0.0285459
7.52264
-0.398479
-3.70088
0.0849894
0.843338
-0.112785
-0.0647715
-0.0806428
-0.239677
0.069007
-0.0242729
-0.101864
0.145775
0.069307
-0.133279
-0.092149
0.0477738
0.0217768
-0.0415014
-0.0280555
0.00149313
-0.0173002
-0.0287478
-0.0073955
0.0116539
0.00196124
-0.0113911
-0.00927785
0.00466786
0.0175721
0.0200425
0.0200387
0.0255644
0.03096
0.0305379
5.37727
-1.34411
-1.63911
-5.27271
-0.793286
3.87994
3.03538
-2.54076
-2.10501
0.735212
0.898671
-0.419073
-0.0676676
-0.0110734
-0.296079
0.120474
0.395545
-0.404496
-0.310606
0.283898
0.0988611
-0.227337
-0.143883
0.182044
0.000986513
-0.126002
-0.041596
0.00167359
-0.0232125
-0.00813417
0.0183299
0.0114741
-0.00756804
-0.00432765
0.00723248
0.0142124
0.017752
0.0194839
0.0235591
0.0318391
0.0350086
0.0304617
5.37335
-0.910229
-3.55149
-5.12976
-1.56818
9.63536
1.5778
-7.49367
-0.742305
3.07564
-0.0857837
-0.704195
-0.161929
-0.0161518
-0.213095
0.302664
0.128794
-0.612229
-0.110561
0.524506
-0.162318
-0.27946
0.0766543
0.122407
-0.107888
-0.122291
-0.0139792
-0.002413
0.00833007
0.0341573
0.00384886
-0.0268314
-0.0165615
0.0132124
0.0259101
0.014396
0.00980483
0.0164406
0.0299331
0.039458
0.0364106
0.0303921
9.46877
-4.08225
-12.1297
-1.12789
8.92458
5.56262
-5.77767
-5.58005
4.99286
1.09917
-1.72966
-0.0801014
0.0456372
-0.144326
0.00568733
0.176933
-0.303511
-0.241616
0.206374
0.0601145
-0.132487
-0.0329783
0.0344106
-0.0354594
-0.0600468
-0.0519345
-0.0497954
-0.00838821
0.0552065
0.03759
-0.038926
-0.0462282
0.00682081
0.0293692
0.0243508
0.00795991
0.00460731
0.018134
0.0357642
0.0397848
0.0327467
0.031649
3.31196
-5.32462
-4.38848
1.22985
11.1161
-2.44142
-7.61176
0.603188
4.73798
-0.896018
-1.89938
0.548997
0.0511434
0.0109965
-0.0987221
-0.251598
0.12947
-0.0152208
-0.223446
0.0579266
0.220158
-0.106345
-0.193751
-0.018123
0.0745549
-0.0159508
-0.0599294
-0.00811321
0.0199166
-0.0154163
-0.0346059
-0.0103184
0.0164707
0.0190362
0.00976157
0.00500554
0.0138139
0.0307597
0.0371265
0.0308315
0.0271157
0.0323546
-0.93145
-2.69657
-0.969928
0.694898
8.10287
-0.645573
-6.52265
-0.764805
4.12975
0.295178
-2.18824
0.528812
0.224011
-0.143547
-0.161906
0.121808
0.416271
-0.390717
-0.453435
0.318555
0.227901
-0.241915
-0.205363
0.0597372
0.093384
-0.0113947
-0.0613358
-0.0565246
-0.0398836
-0.00747388
0.020416
0.0149314
-0.00459831
-0.00730829
0.00259304
0.0147664
0.0279158
0.0358342
0.0327695
0.0230974
0.0225886
0.0323963
0.351765
-3.45758
-1.81005
0.862189
7.88216
-0.498705
-7.25398
-0.461316
4.97084
0.0588323
-2.43538
0.581964
0.132303
-0.230892
-0.143394
0.439019
0.411997
-0.779447
-0.43187
0.527142
0.111463
-0.272993
-0.0845414
0.135216
0.0609729
-0.0411636
-0.0705774
-0.0759137
-0.0473696
0.0154699
0.0472007
0.0120113
-0.0338455
-0.0229252
0.0145618
0.0319294
0.0319449
0.0248904
0.0181492
0.0189122
0.0259352
0.0317016
-3.56258
2.91226
-2.37612
4.45801
3.73235
-4.51522
-5.40239
2.45548
5.22987
-2.48848
-2.04914
1.18625
0.316778
-0.296994
-0.0636542
0.211065
0.101455
-0.480889
-0.0636505
0.324882
-0.0877443
-0.200608
0.0268684
0.0963159
0.00832771
-0.0544398
-0.0668173
-0.0638537
-0.0196555
0.0464795
0.0451482
-0.0156923
-0.0487691
-0.0140162
0.0290939
0.0359285
0.0233429
0.00938956
0.00831227
0.0185523
0.0277115
0.0262522
1.52155
0.682651
-0.0472494
-2.84987
-1.89837
3.47188
1.67629
-2.23313
-0.242743
0.453508
-0.311096
0.00784887
-0.0128732
0.0209261
-0.248229
0.0585419
0.110661
-0.155858
0.0460052
0.089442
-0.0225381
0.00330157
0.00716266
-0.032357
-0.0283283
-0.0142668
-0.0443147
-0.0544213
0.0018886
0.0602858
0.0262753
-0.0344508
-0.035551
0.00419873
0.0271195
0.0216251
0.00623443
-0.000211577
0.010141
0.0236656
0.025298
0.015149
4.46124
-1.32385
0.219007
-7.16895
-2.56015
9.14845
2.78947
-6.88176
-1.4997
3.52588
0.519358
-1.31614
0.146725
-0.00776275
-0.412437
0.53752
0.242544
-0.419252
-0.142933
0.0972505
0.148945
0.0835778
-0.11762
-0.14384
-0.0214887
0.0575385
0.00790174
-0.00608297
0.0491464
0.0375285
-0.0300575
-0.0417271
-0.000956453
0.0222707
0.0151038
0.00101459
-0.00706294