/*--------------------------------*- C++ -*----------------------------------*\
| =========                 |                                                 |
| \\      /  F ield         | OpenFOAM: The Open Source CFD Toolbox           |
|  \\    /   O peration     | Version:  2412                                  |
|   \\  /    A nd           | Website:  www.openfoam.com                      |
|    \\/     M anipulation  |                                                 |
\*---------------------------------------------------------------------------*/
FoamFile
{
    version     2.0;
    format      ascii;
    arch        "LSB;label=32;scalar=64";
    class       volScalarField;
    location    "0.013";
    object      drdt;
}
// * * * * * * * * * * * * * * * * * * * * * * * * * * * * * * * * * * * * * //

dimensions      [0 1 -1 0 0 0 0];

internalField   nonuniform List<scalar> 
8988
(
0
0
0
0
0
0
0
0
0
0
0
0
0
0
0
0
0
0
0
0
0
0
0
0
0
0
0
0
0
0
0
0
0
0
0
0
0
0
0
0
0
0
0
0
0
0
0
0
0
0
0
0
0
0
0
0
0
0
0
0
0
0
0
0
0
0
0
0
0
0
0
0
0
0
0
0
0
0
0
0
0
0
0
0
0
0
0
0
0
0
0
0
0
0
0
0
0
0
0
0
0
0
0
0
0
0
0
0
0
0
0
0
0
0
0
0
0
0
0
0
0
0
0
0
0
0
0
0
0
0
0
0
0
0
0
0
0
0
0
0
0
0
0
0
0
0
0
0
0
0
0
0
0
0
0
0
0
0
0
0
0
0
0
0
0
0
0
0
0
0
0
0
0
0
0
0
0
0
0
0
0
0
0
0
0
0
0
0
0
0
0
0
0
0
0
0
0
0
0
0
0
0
0
0
0
0
0
0
0
0
0
0
0
0
0
0
0
0
0
0
0
0
0
0
0
0
0
0
0
0
0
0
0
0
0
0
0
0
0
0
0
0
0
0
0
0
0
0
0
0
0
0
0
0
0
0
0
0
0
0
0
0
0
0
0
0
0
0
0
0
0
0
0
0
0
0
0
0
0
0
0
0
0
0
0
0
0
0
0
0
0
0
0
0
0
0
0
0
0
0
0
0
0
0
0
0
0
0
0
0
0
0
0
0
0
0
0
0
0
0
0
0
0
0
0
0
0
0
0
0
0
0
0
0
0
0
0
0
0
0
0
0
0
0
0
0
0
0
0
0
0
0
0
0
0
0
0
0
0
0
0
0
0
0
0
0
0
0
0
0
0
0
0
0
0
0
0
0
0
0
0
0
0
0
0
0
0
0
0
0
0
0
0
0
0
0
0
0
0
0
0
0
0
0
0
0
0
0
0
0
0
0
0
0
0
0
0
0
0
0
0
0
0
0
0
0
0
0
0
0
0
0
0
0
0
0
0
0
0
0
0
0
0
0
0
0
0
0
0
0
0
0
0
0
0
0
0
0
0
0
0
0
0
0
0
0
0
0
0
0
0
0
0
0
0
0
0
0
0
0
0
0
0
0
0
0
0
0
0
0
0
0
0
0
0
0
0
0
0
0
0
0
0
0
0
0
0
0
0
0
0
0
0
0
0
0
0
0
0
0
0
0
0
0
0
0
0
0
0
0
0
0
0
0
0
0
0
0
0
0
0
0
0
0
0
0
0
0
0
0
0
0
0
0
0
0
0
0
0
0
0
0
0
0
0
0
0
0
0
0
0
0
0
0
0
0
0
0
0
0
0
0
0
0
0
0
0
0
0
0
0
0
0
0
0
0
0
0
0
0
0
0
0
0
0
0
0
0
0
0
0
0
0
0
0
0
0
0
0
0
0
0
0
0
0
0
0
0
0
0
0
0
0
0
0
0
0
0
0
0
0
0
0
0
0
0
0
0
0
0
0
0
0
0
0
0
0
0
0
0
0
0
0
0
0
0
0
0
0
0
0
0
0
0
0
0
0
0
0
0
0
0
0
0
0
0
0
0
0
0
0
0
0
0
0
0
0
0
0
0
0
0
0
0
0
0
0
0
0
0
0
0
0
0
0
0
0
0
0
0
0
0
0
0
0
0
0
0
0
0
0
0
0
0
0
0
0
0
0
0
0
0
0
0
0
0
0
0
0
0
0
0
0
0
0
0
0
0
0
0
0
0
0
0
0
0
0
0
0
0
0
0
0
0
0
0
0
0
0
0
0
0
0
0
0
0
0
0
0
0
0
0
0
0
0
0
0
0
0
0
0
0
0
0
0
0
0
0
0
0
0
0
0
0
0
0
0
0
0
0
0
0
0
0
0
0
0
0
0
0
0
0
0
0
0
0
0
0
0
0
0
0
0
0
0
0
0
0
0
0
0
0
0
0
0
0
0
0
0
0
0
0
0
0
0
0
0
0
0
0
0
0
0
0
0
0
0
0
0
0
0
0
0
0
0
0
0
0
0
0
0
0
0
0
0
0
0
0
0
0
0
0
0
0
0
0
0
0
0
0
0
0
0
0
0
0
0
0
0
0
0
0
0
0
0
0
0
0
0
0
0
0
0
0
0
0
0
0
0
0
0
0
0
0
0
0
0
0
0
0
0
0
0
0
0
0
0
0
0
0
0
0
0
0
0
0
0
0
0
0
0
0
0
0
0
0
0
0
0
0
0
0
0
0
0
0
0
0
0
0
0
0
0
0
0
0
0
0
0
0
0
0
0
0
0
0
0
0
0
0
0
0
0
0
0
0
0
0
0
0
0
0
0
0
0
0
0
0
0
0
0
0
0
0
0
0
0
0
0
0
0
0
0
0
0
0
0
0
0
0
0
0
0
0
0
0
0
0
0
0
0
0
0
0
0
0
0
0
0
0
0
0
0
0
0
0
0
0
0
0
0
0
0
0
0
0
0
0
0
0
0
0
0
0
0
0
0
0
0
0
0
0
0
0
0
0
0
0
0
0
0
0
0
0
0
0
0
0
0
0
0
0
0
0
0
0
0
0
0
0
0
0
0
0
0
0
0
0
0
0
0
0
0
0
0
0
0
0
0
0
0
0
0
0
0
0
0
0
0
0
0
0
0
0
0
0
0
0
0
0
0
0
0
0
0
0
0
0
0
0
0
0
0
0
0
0
0
0
0
0
0
0
0
0
0
0
0
0
0
0
0
0
0
0
0
0
0
0
0
0
0
0
0
0
0
0
0
0
0
0
0
0
0
0
0
0
0
0
0
0
0
0
0
0
0
0
0
0
0
0
0
0
0
0
0
0
0
0
0
0
0
0
0
0
0
0
0
0
0
0
0
0
0
0
0
0
0
0
0
0
0
0
0
0
0
0
0
0
0
0
0
0
0
0
0
0
0
0
0
0
0
0
0
0
0
0
0
0
0
0
0
0
0
0
0
0
0
0
0
0
0
0
0
0
0
0
0
0
0
0
0
0
0
0
0
0
0
0
0
0
0
0
0
0
0
0
0
0
0
0
0
0
0
0
0
0
0
0
0
0
0
0
0
0
0
0
0
0
0
0
0
0
0
0
0
0
0
0
0
0
0
0
0
0
0
0
0
0
0
0
0
0
0
0
0
0
0
0
0
0
0
0
0
0
0
0
0
0
0
0
0
0
0
0
0
0
0
0
0
0
0
0
0
0
0
0
0
0
0
0
0
0
0
0
0
0
0
0
0
0
0
0
0
0
0
0
0
0
0
0
0
0
0
0
0
0
0
0
0
0
0
0
0
0
0
0
0
0
0
0
0
0
0
0
0
0
0
0
0
0
0
0
0
0
0
0
0
0
0
0
0
0
0
0
0
0
0
0
0
0
0
0
0
0
0
0
0
0
0
0
0
0
0
0
0
0
0
0
0
0
0
0
0
0
0
0
0
0
0
0
0
0
0
0
0
0
0
0
0
0
0
0
0
0
0
0
0
0
0
0
0
0
0
0
0
0
0
0
0
0
0
0
0
0
0
0
0
0
0
0
0
0
0
0
0
0
0
0
0
0
0
0
0
0
0
0
0
0
0
0
0
0
0
0
0
0
0
0
0
0
0
0
0
0
0
0
0
0
0
0
0
0
0
0
0
0
0
0
0
0
0
0
0
0
0
0
0
0
0
0
0
0
0
0
0
0
0
0
0
0
0
0
0
0
0
0
0
0
0
0
0
0
0
0
0
0
0
0
0
0
0
0
0
0
0
0
0
0
0
0
0
0
0
0
0
0
0
0
0
0
0
0
0
0
0
0
0
0
0
0
0
0
0
0
0
0
0
0
0
0
0
0
0
0
0
0
0
0
0
0
0
0
0
0
0
0
0
0
0
0
0
0
0
0
0
0
0
0
0
0
0
0
0
0
0
0
0
0
0
0
0
0
0
0
0
0
0
0
0
0
0
0
0
0
0
0
0
0
0
0
0
0
0
0
0
0
0
0
0
0
0
0
0
0
0
0
0
0
0
0
0
0
0
0
0
0
0
0
0
0
0
0
0
0
0
0
0
0
0
0
0
0
0
0
0
0
0
0
0
0
0
0
0
0
0
0
0
0
0
0
0
0
0
0
0
0
0
0
0
0
0
0
0
0
0
0
0
0
0
0
0
0
0
0
0
0
0
0
0
0
0
0
0
0
0
0
0
0
0
0
0
0
0
0
0
0
0
0
0
0
0
0
0
0
0
0
0
0
0
0
0
0
0
0
0
0
0
0
0
0
0
0
0
0
0
0
0
0
0
0
0
0
0
0
0
0
0
0
0
0
0
0
0
0
0
0
0
0
0
0
0
0
0
0
0
0
0
0
0
0
0
0
0
0
0
0
0
0
0
0
0
0
0
0
0
0
0
0
0
0
0
0
0
0
0
0
0
0
0
0
0
0
0
0
0
0
0
0
0
0
0
0
0
0
0
0
0
0
0
0
0
0
0
0
0
0
0
0
0
0
0
0
0
0
0
0
0
0
0
0
0
0
0
0
0
0
0
0
0
0
0
0
0
0
0
0
0
0
0
0
0
0
0
0
0
0
0
0
0
0
0
0
0
0
0
0
0
0
0
0
0
0
0
0
0
0
0
0
0
0
0
0
0
0
0
0
0
0
0
0
0
0
0
0
0
0
0
0
0
0
0
0
0
0
0
0
0
0
0
0
0
0
0
0
0
0
0
0
0
0
0
0
0
0
0
0
0
0
0
0
0
0
0
0
0
0
0
0
0
0
0
0
0
0
0
0
0
0
0
0
0
0
0
0
0
0
0
0
0
0
0
0
0
0
0
0
0
0
0
0
0
0
0
0
0
0
0
0
0
0
0
0
0
0
0
0
0
0
0
0
0
0
0
0
0
0
0
0
0
0
0
0
0
0
0
0
0
0
0
0
0
0
0
0
0
0
0
0
0
0
0
0
0
0
0
0
0
0
0
0
0
0
0
0
0
0
0
0
0
0
0
0
0
0
0
0
0
0
0
0
0
0
0
0
0
0
0
0
0
0
0
0
0
0
0
0
0
0
0
0
0
0
0
0
0
0
0
0
0
0
0
0
0
0
0
0
0
0
0
0
0
0
0
0
0
0
0
0
0
0
0
0
0
0
0
0
0
0
0
0
0
0
0
0
0
0
0
0
0
0
0
0
0
0
0
0
0
0
0
0
0
0
0
0
0
0
0
0
0
0
0
0
0
0
0
0
0
0
0
0
0
0
0
0
0
0
0
0
0
0
0
0
0
0
0
0
0
0
0
0
0
0
0
0
0
0
0
0
0
0
0
0
0
0
0
0
0
0
0
0
0
0
0
0
0
0
0
0
0
0
0
0
0
0
0
0
0
0
0
0
0
0
0
0
0
0
0
0
0
0
0
0
0
0
0
0
0
0
0
0
0
0
0
0
0
0
0
0
0
0
0
0
0
0
0
0
0
0
0
0
0
0
0
0
0
0
0
0
0
0
0
0
0
0
0
0
0
0
0
0
0
0
0
0
0
0
0
0
0
0
0
0
0
0
0
0
0
0
0
0
0
0
0
0
0
0
0
0
0
0
0
0
0
0
0
0
0
0
0
0
0
0
0
0
0
0
0
0
0
0
0
0
0
0
0
0
0
0
0
0
0
0
0
0
0
0
0
0
0
0
0
0
0
0
0
0
0
0
0
0
0
0
0
0
0
0
0
0
0
0
0
0
0
0
0
0
0
0
0
0
0
0
0
0
0
0
0
0
0
0
0
0
0
0
0
0
0
0
0
0
0
0
0
0
0
0
0
0
0
0
0
0
0
0
0
0
0
0
0
0
0
0
0
0
0
0
0
0
0
0
0
0
0
0
0
0
0
0
0
0
0
0
0
0
0
0
0
0
0
0
0
0
0
0
0
0
0
0
0
0
0
0
0
0
0
0
0
0
0
0
0
0
0
0
0
0
0
0
0
0
0
0
0
0
0
0
0
0
0
0
0
0
0
0
0
0
0
0
0
0
0
0
0
0
0
0
0
0
0
0
0
0
0
0
0
0
0
0
0
0
0
0
0
0
0
0
0
0
0
0
0
0
0
0
0
0
0
0
0
0
0
0
0
0
0
0
0
0
0
0
0
0
0
0
0
0
0
0
0
0
0
0
0
0
0
0
0
0
0
0
0
0
0
0
0
0
0
0
0
0
0
0
0
0
0
0
0
0
0
0
0
0
0
0
0
0
0
0
0
0
0
0
0
0
0
0
0
0
0
0
0
0
0
0
0
0
0
0
0
0
0
0
0
0
0
0
0
0
0
0
0
0
0
0
0
0
0
0
0
0
0
0
0
0
0
0
0
0
0
0
0
0
0
0
0
0
0
0
0
0
0
0
0
0
0
0
0
0
0
0
0
0
0
0
0
0
0
0
0
0
0
0
0
0
0
0
0
0
0
0
0
0
0
0
0
0
0
0
0
0
0
0
0
0
0
0
0
0
0
0
0
0
0
0
0
0
0
0
0
0
0
0
0
0
0
0
0
0
0
0
0
0
0
0
0
0
0
0
0
0
0
0
0
0
0
0
0
0
0
0
0
0
0
0
0
0
0
0
0
0
0
0
0
0
0
0
0
0
0
0
0
0
0
0
0
0
0
0
0
0
0
0
0
0
0
0
0
0
0
0
0
0
0
0
0
0
0
0
0
0
0
0
0
0
0
0
0
0
0
0
0
0
0
0
0
0
0
0
0
0
0
0
0
0
0
0
0
0
0
0
0
0
0
0
0
0
0
0
0
0
0
0
0
0
0
0
0
0
0
0
0
0
0
0
0
0
0
0
0
0
0
0
0
0
0
0
0
0
0
0
0
0
0
0
0
0
0
0
0
0
0
0
0
0
0
0
0
0
0
0
0
0
0
0
0
0
0
0
0
0
0
0
0
0
0
0
0
0
0
0
0
0
0
0
0
0
0
0
0
0
0
0
0
0
0
0
0
0
0
0
0
0
0
0
0
0
0
0
0
0
0
0
0
0
0
0
0
0
0
0
0
0
0
0
0
0
0
0
0
0
0
0
0
0
0
0
0
0
0
0
0
0
0
0
0
0
0
0
0
0
0
0
0
0
0
0
0
0
0
0
0
0
0
0
0
0
0
0
0
0
0
0
0
0
0
0
0
0
0
0
0
0
0
0
0
0
0
0
0
0
0
0
0
0
0
0
0
0
0
0
0
0
0
0
0
0
0
0
0
0
0
0
0
0
0
0
0
0
0
0
0
0
0
0
0
0
0
0
0
0
0
0
0
0
0
0
0
0
0
0
0
0
0
0
0
0
0
0
0
0
0
0
0
0
0
0
0
0
0
0
0
0
0
0
0
0
0
0
0
0
0
0
0
0
0
0
0
0
0
0
0
0
0
0
0
0
0
0
0
0
0
0
0
0
0
0
0
0
0
0
0
0
0
0
0
0
0
0
0
0
0
0
0
0
0
0
0
0
0
0
0
0
0
0
0
0
0
0
0
0
0
0
0
0
0
0
0
0
0
0
0
0
0
0
0
0
0
0
0
0
0
0
0
0
0
0
0
0
0
0
0
0
0
0
0
0
0
0
0
0
0
0
0
0
0
0
0
0
0
0
0
0
0
0
0
0
0
0
0
0
0
0
0
0
0
0
0
0
0
0
0
0
0
0
0
0
0
0
0
0
0
0
0
0
0
0
0
0
0
0
0
0
0
0
0
0
0
0
0
0
0
0
0
0
0
0
0
0
0
0
0
0
0
0
0
0
0
0
0
0
0
0
0
0
0
0
0
0
0
0
0
0
0
0
0
0
0
0
0
0
0
0
0
0
0
0
0
0
0
0
0
0
0
0
0
0
0
0
0
0
0
0
0
0
0
0
0
0
0
0
0
0
0
0
0
0
0
0
0
0
0
0
0
0
0
0
0
0
0
0
0
0
0
0
0
0
0
0
0
0
0
0
0
0
0
0
0
0
0
0
0
0
0
0
0
0
0
0
0
0
0
0
0
0
0
0
0
0
0
0
0
0
0
0
0
0
0
0
0
0
0
0
0
0
0
0
0
0
0
0
0
0
0
0
0
0
0
0
0
0
0
0
0
0
0
0
0
0
0
0
0
0
0
0
0
0
0
0
0
0
0
0
0
0
0
0
0
0
0
0
0
0
0
0
0
0
0
0
0
0
0
0
0
0
0
0
0
0
0
0
0
0
0
0
0
0
0
0
0
0
0
0
0
0
0
0
0
0
0
0
0
0
0
0
0
0
0
0
0
0
0
0
0
0
0
0
0
0
0
0
0
0
0
0
0
0
0
0
0
0
0
0
0
0
0
0
0
0
0
0
0
0
0
0
0
0
0
0
0
0
0
0
0
0
0
0
0
0
0
0
0
0
0
0
0
0
0
0
0
0
0
0
0
0
0
0
0
0
0
0
0
0
0
0
0
0
0
0
0
0
0
0
0
0
0
0
0
0
0
0
0
0
0
0
0
0
0
0
0
0
0
0
0
0
0
0
0
0
0
0
0
0
0
0
0
0
0
0
0
0
0
0
0
0
0
0
0
0
0
0
0
0
0
0
0
0
0
0
0
0
0
0
0
0
0
0
0
0
0
0
0
0
0
0
0
0
0
0
0
0
0
0
0
0
0
0
0
0
0
0
0
0
0
0
0
0
0
0
0
0
0
0
0
0
0
0
0
0
0
0
0
0
0
0
0
0
0
0
0
0
0
0
0
0
0
0
0
0
0
0
0
0
0
0
0
0
0
0
0
0
0
0
0
0
0
0
0
0
0
0
0
0
0
0
0
0
0
0
0
0
0
0
0
0
0
0
0
0
0
0
0
0
0
0
0
0
0
0
0
0
0
0
0
0
0
0
0
0
0
0
0
0
0
0
0
0
0
0
0
0
0
0
0
0
0
0
0
0
0
0
0
0
0
0
0
0
0
0
0
0
0
0
0
0
0
0
0
0
0
0
0
0
0
0
0
0
0
0
0
0
0
0
0
0
0
0
0
0
0
0
0
0
0
0
0
0
0
0
0
0
0
0
0
0
0
0
0
0
0
0
0
0
0
0
0
0
0
0
0
0
0
0
0
0
0
0
0
0
0
0
0
0
0
0
0
0
0
0
0
0
0
0
0
0
0
0
0
0
0
0
0
0
0
0
0
0
0
0
0
0
0
0
0
0
0
0
0
0
0
0
0
0
0
0
0
0
0
0
0
0
0
0
0
0
0
0
0
0
0
0
0
0
0
0
0
0
0
0
0
0
0
0
0
0
0
0
0
0
0
0
0
0
0
0
0
0
0
0
0
0
0
0
0
0
0
0
0
0
0
0
0
0
0
0
0
0
0
0
0
0
0
0
0
0
0
0
0
0
0
1.49219e-07
1.56922e-07
1.59468e-07
1.59872e-07
1.60428e-07
1.61393e-07
1.61699e-07
1.6141e-07
1.60822e-07
1.60211e-07
1.59763e-07
1.59367e-07
1.59105e-07
1.5911e-07
1.59902e-07
1.59572e-07
1.58808e-07
1.61374e-07
1.58561e-07
0
0
0
0
0
0
0
0
0
0
0
0
0
0
0
0
0
0
0
0
0
1.48961e-07
1.60088e-07
1.68822e-07
1.76121e-07
1.80923e-07
1.81338e-07
1.80944e-07
1.81657e-07
1.8273e-07
1.82776e-07
1.82013e-07
1.81044e-07
1.80833e-07
1.80837e-07
1.80709e-07
1.80791e-07
1.81668e-07
1.81261e-07
1.80394e-07
1.82747e-07
1.80268e-07
0
0
0
0
0
0
0
0
0
0
0
0
0
0
0
0
0
0
0
0
1.63972e-07
1.65595e-07
1.76478e-07
1.84049e-07
1.91332e-07
1.95604e-07
1.95057e-07
1.94643e-07
1.95467e-07
1.9844e-07
1.98702e-07
1.97702e-07
1.96312e-07
1.96432e-07
1.96683e-07
1.96318e-07
1.96248e-07
1.97218e-07
1.96907e-07
1.96047e-07
1.97966e-07
1.95744e-07
0
0
0
0
0
0
0
0
0
0
0
0
0
0
0
0
0
0
0
2.4266e-07
1.81093e-07
1.80871e-07
1.90306e-07
1.96226e-07
2.02522e-07
2.07137e-07
2.07289e-07
2.07167e-07
2.08048e-07
2.09051e-07
2.09219e-07
2.08895e-07
2.08818e-07
2.09505e-07
2.09646e-07
2.09243e-07
2.09247e-07
2.10016e-07
2.09458e-07
2.08378e-07
2.09857e-07
2.07872e-07
0
0
0
0
0
0
0
0
0
0
0
0
0
0
0
0
0
0
5.35102e-07
2.5894e-07
1.96689e-07
1.93238e-07
2.01456e-07
2.09407e-07
2.13415e-07
2.1492e-07
2.16433e-07
2.17967e-07
2.18779e-07
2.19008e-07
2.19179e-07
2.19781e-07
2.20482e-07
2.2078e-07
2.20607e-07
2.2053e-07
2.20568e-07
2.20763e-07
2.20055e-07
2.18904e-07
2.20322e-07
2.18656e-07
0
0
0
0
0
0
0
0
0
0
0
0
0
0
0
0
0
0
4.97283e-07
2.69137e-07
2.13088e-07
2.03279e-07
2.06849e-07
2.16152e-07
2.2205e-07
2.2427e-07
2.26709e-07
2.28375e-07
2.28845e-07
2.29374e-07
2.30289e-07
2.31057e-07
2.31251e-07
2.30921e-07
2.30695e-07
2.31038e-07
2.31102e-07
2.30813e-07
2.30171e-07
2.29236e-07
2.30422e-07
2.29061e-07
0
0
0
0
0
0
0
0
0
0
0
0
0
0
0
0
0
3.18187e-07
3.64924e-07
2.506e-07
2.21316e-07
2.1338e-07
2.15699e-07
2.24462e-07
2.30807e-07
2.34178e-07
2.36717e-07
2.37698e-07
2.38328e-07
2.39607e-07
2.40968e-07
2.4159e-07
2.41219e-07
2.40617e-07
2.4047e-07
2.41076e-07
2.41053e-07
2.40543e-07
2.40018e-07
2.39568e-07
2.40623e-07
2.3951e-07
0
0
0
0
0
0
0
0
0
0
0
0
0
0
0
0
0
2.75675e-07
2.86756e-07
2.33507e-07
2.23013e-07
2.2043e-07
2.26121e-07
2.35178e-07
2.40963e-07
2.44377e-07
2.46738e-07
2.4727e-07
2.47826e-07
2.49325e-07
2.50739e-07
2.51288e-07
2.50779e-07
2.50431e-07
2.50519e-07
2.51247e-07
2.51166e-07
2.50619e-07
2.50097e-07
2.49937e-07
2.50906e-07
2.50236e-07
0
0
0
0
0
0
0
0
0
0
0
0
0
0
0
0
0
3.5003e-07
2.67563e-07
2.28938e-07
2.24658e-07
2.26932e-07
2.36337e-07
2.45876e-07
2.50965e-07
2.54377e-07
2.57064e-07
2.57726e-07
2.58125e-07
2.59311e-07
2.60471e-07
2.60761e-07
2.60327e-07
2.60511e-07
2.61241e-07
2.61897e-07
2.61839e-07
2.61514e-07
2.61186e-07
2.61301e-07
2.6212e-07
2.6201e-07
0
0
0
0
0
0
0
0
0
0
0
0
0
0
0
0
1.24444e-06
3.63017e-07
2.44986e-07
2.26044e-07
2.28294e-07
2.35115e-07
2.46723e-07
2.56188e-07
2.60826e-07
2.64512e-07
2.67631e-07
2.68641e-07
2.69293e-07
2.70406e-07
2.71402e-07
2.71513e-07
2.71169e-07
2.71664e-07
2.72655e-07
2.73413e-07
2.73331e-07
2.72978e-07
2.73006e-07
2.73145e-07
2.73693e-07
2.7373e-07
0
0
0
0
0
0
0
0
0
0
0
0
0
0
0
0
2.05947e-06
3.96022e-07
2.34056e-07
2.25828e-07
2.33996e-07
2.44973e-07
2.57591e-07
2.66747e-07
2.71506e-07
2.75421e-07
2.78517e-07
2.79757e-07
2.80867e-07
2.8212e-07
2.83061e-07
2.83235e-07
2.8319e-07
2.83853e-07
2.84847e-07
2.85387e-07
2.85187e-07
2.84866e-07
2.84973e-07
2.85155e-07
2.85515e-07
2.85454e-07
0
0
0
0
0
0
0
0
0
0
0
0
0
0
0
0
2.03897e-06
4.27153e-07
2.37856e-07
2.28765e-07
2.41325e-07
2.56028e-07
2.69091e-07
2.78187e-07
2.83662e-07
2.87724e-07
2.90568e-07
2.92101e-07
2.93491e-07
2.94754e-07
2.9564e-07
2.95997e-07
2.9626e-07
2.96964e-07
2.97758e-07
2.98008e-07
2.97719e-07
2.97563e-07
2.9776e-07
2.98028e-07
2.98208e-07
2.98095e-07
0
0
0
0
0
0
0
0
0
0
0
0
0
0
0
0
1.72554e-06
4.4191e-07
2.47303e-07
2.34861e-07
2.50374e-07
2.67673e-07
2.8091e-07
2.90346e-07
2.96752e-07
3.01001e-07
3.03775e-07
3.05663e-07
3.07153e-07
3.08274e-07
3.09067e-07
3.0955e-07
3.09981e-07
3.10645e-07
3.11232e-07
3.11276e-07
3.11008e-07
3.11034e-07
3.11382e-07
3.1171e-07
3.11713e-07
3.11409e-07
0
0
0
0
0
0
0
0
0
0
0
0
0
0
0
0
1.3945e-06
4.36294e-07
2.55015e-07
2.42661e-07
2.60789e-07
2.79588e-07
2.92952e-07
3.03033e-07
3.1025e-07
3.14731e-07
3.1772e-07
3.19985e-07
3.21591e-07
3.22601e-07
3.23282e-07
3.23806e-07
3.24316e-07
3.24915e-07
3.25336e-07
3.25314e-07
3.25191e-07
3.2538e-07
3.258e-07
3.26088e-07
3.25934e-07
3.25473e-07
0
0
0
0
0
0
0
0
0
0
0
0
0
0
0
0
1.13981e-06
4.25599e-07
2.62449e-07
2.52852e-07
2.73094e-07
2.92051e-07
3.05535e-07
3.16504e-07
3.24325e-07
3.29003e-07
3.32259e-07
3.34775e-07
3.36471e-07
3.37459e-07
3.38134e-07
3.3875e-07
3.39336e-07
3.39875e-07
3.40203e-07
3.40289e-07
3.40437e-07
3.40788e-07
3.41187e-07
3.41333e-07
3.41059e-07
3.40542e-07
0
0
0
0
0
0
0
0
0
0
0
0
0
0
0
0
9.41621e-07
4.13195e-07
2.70788e-07
2.65593e-07
2.86429e-07
3.04524e-07
3.18967e-07
3.30988e-07
3.39038e-07
3.44018e-07
3.47646e-07
3.50231e-07
3.51877e-07
3.52951e-07
3.5378e-07
3.546e-07
3.55274e-07
3.55689e-07
3.55986e-07
3.56312e-07
3.5678e-07
3.57281e-07
3.57618e-07
3.57635e-07
3.57359e-07
3.56918e-07
0
0
0
0
0
0
0
0
0
0
0
0
0
0
0
0
7.77621e-07
3.98338e-07
2.80606e-07
2.80249e-07
3.00172e-07
3.18215e-07
3.34591e-07
3.47135e-07
3.54876e-07
3.60321e-07
3.64364e-07
3.66795e-07
3.68205e-07
3.69444e-07
3.70532e-07
3.71577e-07
3.72295e-07
3.72532e-07
3.72852e-07
3.73448e-07
3.7421e-07
3.74838e-07
3.75124e-07
3.75123e-07
3.74986e-07
3.74724e-07
0
0
0
0
0
0
0
0
0
0
0
0
0
0
0
6.56012e-09
6.54448e-07
3.86318e-07
2.9254e-07
2.95229e-07
3.14257e-07
3.34046e-07
3.51904e-07
3.64202e-07
3.72057e-07
3.78176e-07
3.82435e-07
3.84685e-07
3.86071e-07
3.87522e-07
3.88775e-07
3.89852e-07
3.90552e-07
3.9073e-07
3.91105e-07
3.91862e-07
3.92808e-07
3.93516e-07
3.93795e-07
3.93879e-07
3.93922e-07
3.93817e-07
0
0
0
0
0
0
0
0
0
0
0
0
0
0
0
5.18795e-08
5.64872e-07
3.79851e-07
3.06013e-07
3.09798e-07
3.29912e-07
3.51865e-07
3.69708e-07
3.81867e-07
3.90751e-07
3.97343e-07
4.01494e-07
4.03978e-07
4.05916e-07
4.07562e-07
4.08705e-07
4.09507e-07
4.10164e-07
4.10488e-07
4.10909e-07
4.11656e-07
4.12621e-07
4.13349e-07
4.13691e-07
4.1393e-07
4.14106e-07
4.14061e-07
0
0
0
0
0
0
0
0
0
0
0
0
0
0
0
7.11441e-08
4.9991e-07
3.77213e-07
3.19398e-07
3.24814e-07
3.47248e-07
3.70562e-07
3.88083e-07
4.00969e-07
4.10886e-07
4.17539e-07
4.21743e-07
4.2502e-07
4.27675e-07
4.2936e-07
4.30166e-07
4.30666e-07
4.31324e-07
4.31895e-07
4.32375e-07
4.33017e-07
4.33844e-07
4.34511e-07
4.3492e-07
4.35258e-07
4.35436e-07
4.35331e-07
0
0
0
0
0
0
0
0
0
0
0
0
0
0
0
5.0034e-08
4.47636e-07
3.77576e-07
3.34792e-07
3.42483e-07
3.65919e-07
3.89716e-07
4.07772e-07
4.2159e-07
4.32026e-07
4.38994e-07
4.43954e-07
4.48059e-07
4.51047e-07
4.52579e-07
4.53094e-07
4.53501e-07
4.54198e-07
4.54967e-07
4.55537e-07
4.56053e-07
4.56625e-07
4.5715e-07
4.57538e-07
4.57822e-07
4.5788e-07
4.57684e-07
0
0
0
0
0
0
0
0
0
0
0
0
0
0
7.379e-08
1.64102e-06
4.96252e-07
3.69638e-07
3.4577e-07
3.59942e-07
3.85284e-07
4.10073e-07
4.29032e-07
4.43422e-07
4.54449e-07
4.6248e-07
4.68442e-07
4.72867e-07
4.75729e-07
4.77108e-07
4.77676e-07
4.78167e-07
4.78835e-07
4.79749e-07
4.80439e-07
4.80835e-07
4.81157e-07
4.81524e-07
4.81752e-07
4.81786e-07
4.81643e-07
4.81409e-07
0
0
0
0
0
0
0
0
0
0
0
0
0
0
1.01949e-07
2.48831e-06
5.71489e-07
3.67104e-07
3.54892e-07
3.76397e-07
4.05687e-07
4.31919e-07
4.51628e-07
4.66931e-07
4.79123e-07
4.88301e-07
4.94806e-07
4.99145e-07
5.0185e-07
5.03413e-07
5.042e-07
5.04717e-07
5.05341e-07
5.06368e-07
5.07127e-07
5.07402e-07
5.07592e-07
5.07827e-07
5.07773e-07
5.07463e-07
5.07122e-07
5.06902e-07
0
0
0
0
0
0
0
0
0
0
0
0
0
0
8.86394e-08
2.33178e-06
6.16744e-07
3.77643e-07
3.66194e-07
3.94091e-07
4.27373e-07
4.54609e-07
4.75666e-07
4.9276e-07
5.06191e-07
5.15991e-07
5.22686e-07
5.27076e-07
5.30015e-07
5.31953e-07
5.32926e-07
5.33445e-07
5.34107e-07
5.35128e-07
5.35765e-07
5.3591e-07
5.36074e-07
5.36153e-07
5.35813e-07
5.35327e-07
5.34972e-07
5.34829e-07
0
0
0
0
0
0
0
0
0
0
0
0
0
0
8.48345e-08
1.86045e-06
6.23908e-07
3.94335e-07
3.83218e-07
4.15267e-07
4.50211e-07
4.78553e-07
5.01913e-07
5.20776e-07
5.34942e-07
5.45134e-07
5.52278e-07
5.57203e-07
5.60647e-07
5.6289e-07
5.63993e-07
5.64614e-07
5.65389e-07
5.66221e-07
5.66598e-07
5.66653e-07
5.66779e-07
5.66656e-07
5.66198e-07
5.6586e-07
5.65706e-07
5.65703e-07
0
0
0
0
0
0
0
0
0
0
0
0
0
3.48661e-08
8.84463e-08
1.4966e-06
6.16613e-07
4.11814e-07
4.04855e-07
4.38764e-07
4.74286e-07
5.04845e-07
5.30628e-07
5.50671e-07
5.65398e-07
5.76279e-07
5.84276e-07
5.8998e-07
5.93891e-07
5.96335e-07
5.97633e-07
5.98439e-07
5.99265e-07
5.99829e-07
6.00045e-07
6.00089e-07
6.00099e-07
5.99818e-07
5.99488e-07
5.99468e-07
5.99543e-07
5.99677e-07
0
0
0
0
0
0
0
0
0
0
0
0
0
5.42874e-08
9.10081e-08
1.22987e-06
6.03708e-07
4.30321e-07
4.28749e-07
4.63566e-07
5.00686e-07
5.33887e-07
5.61434e-07
5.82538e-07
5.98391e-07
6.10498e-07
6.19527e-07
6.25894e-07
6.30092e-07
6.32707e-07
6.34278e-07
6.35264e-07
6.35981e-07
6.36315e-07
6.36563e-07
6.3663e-07
6.36489e-07
6.36211e-07
6.36131e-07
6.3634e-07
6.36507e-07
6.36719e-07
0
0
0
0
0
0
0
0
0
0
0
0
0
5.78187e-08
9.58098e-08
1.03087e-06
5.89056e-07
4.49133e-07
4.53615e-07
4.90501e-07
5.30071e-07
5.65441e-07
5.94557e-07
6.17171e-07
6.34643e-07
6.48226e-07
6.58333e-07
6.65271e-07
6.69725e-07
6.72622e-07
6.74461e-07
6.75549e-07
6.76083e-07
6.7634e-07
6.76709e-07
6.7677e-07
6.76543e-07
6.76382e-07
6.76446e-07
6.76679e-07
6.76819e-07
6.77082e-07
0
0
0
0
0
0
0
0
0
0
0
0
0
6.34916e-08
1.02726e-07
8.80487e-07
5.76003e-07
4.68531e-07
4.80445e-07
5.20635e-07
5.62353e-07
5.99614e-07
6.30869e-07
6.55551e-07
6.74781e-07
6.89828e-07
7.01016e-07
7.08569e-07
7.13413e-07
7.16685e-07
7.18755e-07
7.19824e-07
7.20238e-07
7.20618e-07
7.21039e-07
7.21078e-07
7.2088e-07
7.20793e-07
7.20769e-07
7.20824e-07
7.20847e-07
7.21114e-07
0
0
0
0
0
0
0
0
0
0
0
0
2.26477e-08
7.25128e-08
1.08731e-07
7.6713e-07
5.6678e-07
4.90029e-07
5.10293e-07
5.53749e-07
5.97485e-07
6.37272e-07
6.71266e-07
6.98205e-07
7.19194e-07
7.35715e-07
7.48058e-07
7.56431e-07
7.61921e-07
7.65573e-07
7.67747e-07
7.68801e-07
7.69283e-07
7.69878e-07
7.7028e-07
7.70353e-07
7.70244e-07
7.70096e-07
7.69798e-07
7.69564e-07
7.69416e-07
7.6961e-07
0
0
0
0
0
0
0
0
0
0
0
0
4.2706e-08
7.74125e-08
1.08655e-07
6.80378e-07
5.62592e-07
5.15221e-07
5.43521e-07
5.89985e-07
6.36497e-07
6.7945e-07
7.16233e-07
7.45503e-07
7.68524e-07
7.86757e-07
8.00461e-07
8.09943e-07
8.16293e-07
8.20374e-07
8.22645e-07
8.23806e-07
8.24463e-07
8.25128e-07
8.25436e-07
8.25567e-07
8.25503e-07
8.25199e-07
8.24592e-07
8.24033e-07
8.23648e-07
8.23674e-07
0
0
0
0
0
0
0
0
0
0
0
0
5.09813e-08
9.33539e-08
4.77153e-07
6.27052e-07
5.63659e-07
5.43678e-07
5.79913e-07
6.30318e-07
6.80718e-07
7.26906e-07
7.66246e-07
7.9806e-07
8.23634e-07
8.44039e-07
8.59474e-07
8.70347e-07
8.77664e-07
8.82313e-07
8.8493e-07
8.86442e-07
8.87306e-07
8.879e-07
8.88108e-07
8.88234e-07
8.88067e-07
8.87526e-07
8.86621e-07
8.85722e-07
8.85036e-07
8.84806e-07
0
0
0
0
0
0
0
0
0
0
0
0
5.41518e-08
1.34051e-07
2.11248e-06
6.79744e-07
5.57748e-07
5.67677e-07
6.17767e-07
6.75433e-07
7.30891e-07
7.80461e-07
8.22666e-07
8.57715e-07
8.86536e-07
9.0962e-07
9.27138e-07
9.39609e-07
9.48029e-07
9.53442e-07
9.5661e-07
9.58513e-07
9.59505e-07
9.60055e-07
9.60282e-07
9.60411e-07
9.60134e-07
9.59389e-07
9.58217e-07
9.56983e-07
9.55986e-07
9.55474e-07
0
0
0
0
0
0
0
0
0
0
0
1.15151e-08
6.38415e-08
1.17907e-07
2.5542e-06
7.42264e-07
5.59615e-07
5.92805e-07
6.58666e-07
7.25769e-07
7.87322e-07
8.41103e-07
8.87304e-07
9.26724e-07
9.59595e-07
9.85863e-07
1.00579e-06
1.02015e-06
1.03003e-06
1.03649e-06
1.04029e-06
1.04249e-06
1.04354e-06
1.04407e-06
1.04429e-06
1.0443e-06
1.04389e-06
1.04298e-06
1.0416e-06
1.04012e-06
1.03889e-06
1.03815e-06
0
0
0
0
0
0
0
0
0
0
0
3.77e-08
6.91849e-08
9.48843e-08
1.81182e-06
7.2821e-07
5.81997e-07
6.29845e-07
7.06559e-07
7.82598e-07
8.51147e-07
9.10674e-07
9.62603e-07
1.00767e-06
1.04538e-06
1.07541e-06
1.09827e-06
1.11512e-06
1.12692e-06
1.13466e-06
1.13916e-06
1.14169e-06
1.14301e-06
1.1437e-06
1.14393e-06
1.14378e-06
1.14319e-06
1.14212e-06
1.14055e-06
1.13895e-06
1.13763e-06
1.13675e-06
0
0
0
0
0
0
0
0
0
0
0
4.30458e-08
7.21781e-08
1.0732e-07
1.29065e-06
6.92659e-07
6.12062e-07
6.76712e-07
7.63814e-07
8.49335e-07
9.25965e-07
9.929e-07
1.05213e-06
1.10387e-06
1.1472e-06
1.18178e-06
1.20853e-06
1.22859e-06
1.24253e-06
1.25149e-06
1.25674e-06
1.25973e-06
1.26149e-06
1.26238e-06
1.26271e-06
1.26252e-06
1.26187e-06
1.26061e-06
1.25883e-06
1.25703e-06
1.2555e-06
1.25444e-06
0
0
0
0
0
0
0
0
0
0
0
4.4951e-08
8.28802e-08
1.15186e-07
9.433e-07
6.60686e-07
6.47384e-07
7.31431e-07
8.3217e-07
9.28876e-07
1.01485e-06
1.09088e-06
1.15872e-06
1.21795e-06
1.26765e-06
1.3078e-06
1.33939e-06
1.36305e-06
1.37938e-06
1.3896e-06
1.39566e-06
1.3993e-06
1.40144e-06
1.40242e-06
1.40292e-06
1.40279e-06
1.40214e-06
1.40072e-06
1.39875e-06
1.39668e-06
1.39473e-06
1.39334e-06
0
0
0
0
0
0
0
0
0
0
0
5.36742e-08
8.87047e-08
1.18682e-07
6.95216e-07
6.32013e-07
6.87121e-07
7.98503e-07
9.16317e-07
1.02456e-06
1.12085e-06
1.20813e-06
1.28734e-06
1.35692e-06
1.4148e-06
1.46221e-06
1.49981e-06
1.52784e-06
1.54699e-06
1.5587e-06
1.56567e-06
1.5698e-06
1.57234e-06
1.57377e-06
1.57469e-06
1.5749e-06
1.57446e-06
1.57315e-06
1.57118e-06
1.56904e-06
1.56707e-06
1.56554e-06
0
0
0
0
0
0
0
0
0
0
1.53204e-08
5.99223e-08
9.36098e-08
1.23031e-07
5.09922e-07
6.09694e-07
7.36533e-07
8.80337e-07
1.01664e-06
1.14007e-06
1.25207e-06
1.35286e-06
1.43985e-06
1.51607e-06
1.58089e-06
1.63429e-06
1.6766e-06
1.70849e-06
1.7302e-06
1.7436e-06
1.75187e-06
1.75675e-06
1.75961e-06
1.76117e-06
1.76213e-06
1.76221e-06
1.76149e-06
1.7598e-06
1.75747e-06
1.75506e-06
1.75279e-06
1.75114e-06
0
0
0
0
0
0
0
0
0
0
2.58887e-08
6.98101e-08
9.62342e-08
1.27339e-07
3.76481e-07
5.99837e-07
8.00545e-07
9.81612e-07
1.14126e-06
1.28206e-06
1.40506e-06
1.51198e-06
1.61033e-06
1.70092e-06
1.77854e-06
1.84189e-06
1.89087e-06
1.92665e-06
1.95081e-06
1.96618e-06
1.97568e-06
1.98102e-06
1.98418e-06
1.98606e-06
1.98724e-06
1.98741e-06
1.98664e-06
1.98486e-06
1.98242e-06
1.9801e-06
1.97784e-06
1.9763e-06
0
0
0
0
0
0
0
0
0
0
4.23826e-08
7.20675e-08
9.69669e-08
1.68804e-07
2.7843e-07
6.04841e-07
8.83211e-07
1.10543e-06
1.28836e-06
1.44298e-06
1.57818e-06
1.704e-06
1.81915e-06
1.92104e-06
2.007e-06
2.07627e-06
2.12939e-06
2.16801e-06
2.19455e-06
2.21164e-06
2.22191e-06
2.22769e-06
2.2313e-06
2.23359e-06
2.23497e-06
2.23542e-06
2.23486e-06
2.23344e-06
2.23116e-06
2.22911e-06
2.22715e-06
2.22579e-06
0
0
0
0
0
0
0
0
0
0
4.73453e-08
6.53568e-08
7.19949e-08
0
8.4202e-08
6.54869e-07
9.97369e-07
1.25297e-06
1.4576e-06
1.63165e-06
1.78624e-06
1.92816e-06
2.05503e-06
2.16344e-06
2.25282e-06
2.32394e-06
2.37861e-06
2.41852e-06
2.44605e-06
2.46383e-06
2.47445e-06
2.48065e-06
2.48471e-06
2.48759e-06
2.48958e-06
2.49085e-06
2.49089e-06
2.49012e-06
2.48848e-06
2.48699e-06
2.48536e-06
2.48407e-06
0
0
0
0
0
0
0
0
0
0
3.57924e-08
6.69488e-08
1.1466e-07
0
0
7.35553e-07
1.14315e-06
1.4311e-06
1.65972e-06
1.85046e-06
2.02155e-06
2.1745e-06
2.30582e-06
2.4124e-06
2.49892e-06
2.56814e-06
2.62108e-06
2.65951e-06
2.68629e-06
2.70356e-06
2.71363e-06
2.71949e-06
2.7234e-06
2.72639e-06
2.72858e-06
2.73047e-06
2.73156e-06
2.73235e-06
2.73257e-06
2.73289e-06
2.73255e-06
2.73188e-06
0
0
0
0
0
0
0
0
0
0
3.39697e-08
7.17475e-08
1.08422e-07
0
0
8.38797e-07
1.31414e-06
1.63975e-06
1.88732e-06
2.09123e-06
2.27283e-06
2.42824e-06
2.55111e-06
2.6467e-06
2.72215e-06
2.78191e-06
2.82661e-06
2.85741e-06
2.87842e-06
2.8921e-06
2.90092e-06
2.90705e-06
2.91173e-06
2.91631e-06
2.9211e-06
2.92527e-06
2.92818e-06
2.93046e-06
2.93055e-06
2.92947e-06
2.92678e-06
2.92401e-06
0
0
0
0
0
0
0
0
0
0
4.17108e-08
7.63328e-08
1.27463e-07
0
0
9.77859e-07
1.51451e-06
1.86661e-06
2.13168e-06
2.34675e-06
2.52538e-06
2.66211e-06
2.7614e-06
2.83243e-06
2.88624e-06
2.93123e-06
2.96786e-06
2.99353e-06
3.00971e-06
3.0207e-06
3.02729e-06
3.03167e-06
3.03521e-06
3.03894e-06
3.04318e-06
3.0477e-06
3.0517e-06
3.05539e-06
3.05829e-06
3.0602e-06
3.06038e-06
3.05984e-06
0
0
0
0
0
0
0
0
0
0
4.00177e-08
7.14898e-08
0
0
4.12433e-10
1.14936e-06
1.74373e-06
2.12061e-06
2.39037e-06
2.59734e-06
2.74801e-06
2.84706e-06
2.90658e-06
2.94202e-06
2.97048e-06
3.00035e-06
3.02477e-06
3.03878e-06
3.04707e-06
3.05279e-06
3.05736e-06
3.06089e-06
3.06417e-06
3.06819e-06
3.07315e-06
3.0783e-06
3.0833e-06
3.08818e-06
3.09252e-06
3.09617e-06
3.09788e-06
3.09808e-06
0
0
0
0
0
0
0
0
0
0
2.71792e-08
6.89263e-08
0
0
1.47257e-07
1.37358e-06
1.99264e-06
2.37585e-06
2.64113e-06
2.82014e-06
2.91804e-06
2.96019e-06
2.96829e-06
2.96481e-06
2.96596e-06
2.97333e-06
2.98051e-06
2.98484e-06
2.98593e-06
2.9862e-06
2.98855e-06
2.99157e-06
2.9953e-06
3.00011e-06
3.00591e-06
3.01192e-06
3.01831e-06
3.02477e-06
3.03075e-06
3.03597e-06
3.03863e-06
3.03888e-06
0
0
0
0
0
0
0
0
0
0
9.02348e-09
5.95305e-08
0
0
3.57572e-07
1.63211e-06
2.25027e-06
2.62223e-06
2.85541e-06
2.97578e-06
3.00934e-06
2.98577e-06
2.93879e-06
2.89526e-06
2.86739e-06
2.85234e-06
2.84408e-06
2.83928e-06
2.8351e-06
2.83156e-06
2.8315e-06
2.83443e-06
2.83933e-06
2.84505e-06
2.85151e-06
2.8587e-06
2.86684e-06
2.8753e-06
2.88334e-06
2.89033e-06
2.89396e-06
2.89435e-06
0
0
0
0
0
0
0
0
0
0
0
4.69387e-08
0
0
6.44904e-07
1.90357e-06
2.49807e-06
2.83563e-06
3.0079e-06
3.04959e-06
3.00636e-06
2.91683e-06
2.81911e-06
2.73916e-06
2.68474e-06
2.65173e-06
2.63152e-06
2.61898e-06
2.61124e-06
2.60703e-06
2.60654e-06
2.61016e-06
2.61632e-06
2.62323e-06
2.63125e-06
2.64032e-06
2.65031e-06
2.66081e-06
2.67085e-06
2.67948e-06
2.684e-06
2.68467e-06
0
0
0
0
0
0
0
0
0
0
0
7.40506e-08
0
0
1.00501e-06
2.17875e-06
2.72329e-06
2.99494e-06
3.08358e-06
3.03989e-06
2.91605e-06
2.76248e-06
2.6228e-06
2.51357e-06
2.43896e-06
2.39331e-06
2.36385e-06
2.34584e-06
2.337e-06
2.33524e-06
2.33802e-06
2.34259e-06
2.34892e-06
2.35794e-06
2.3688e-06
2.38066e-06
2.3932e-06
2.40636e-06
2.4186e-06
2.42876e-06
2.43411e-06
2.43522e-06
0
0
0
0
0
0
0
0
0
0
0
0
0
0
1.41837e-06
2.44762e-06
2.91942e-06
3.10524e-06
3.09519e-06
2.95278e-06
2.7485e-06
2.5454e-06
2.37479e-06
2.24503e-06
2.15764e-06
2.10244e-06
2.06753e-06
2.04894e-06
2.04227e-06
2.04315e-06
2.04669e-06
2.05258e-06
2.06207e-06
2.07437e-06
2.08801e-06
2.10304e-06
2.11876e-06
2.13458e-06
2.14914e-06
2.16146e-06
2.16835e-06
2.17047e-06
0
0
0
0
0
0
0
0
0
0
0
0
0
0
1.87365e-06
2.7153e-06
3.06937e-06
3.14153e-06
3.02674e-06
2.8014e-06
2.53999e-06
2.30125e-06
2.10871e-06
1.9666e-06
1.8707e-06
1.80993e-06
1.77434e-06
1.75698e-06
1.75174e-06
1.75354e-06
1.758e-06
1.76553e-06
1.77749e-06
1.79195e-06
1.80802e-06
1.82607e-06
1.84472e-06
1.8632e-06
1.88007e-06
1.89464e-06
1.90375e-06
1.90744e-06
0
0
0
0
0
0
0
0
0
0
0
0
0
4.75253e-07
2.28379e-06
2.94004e-06
3.17536e-06
3.145e-06
2.9327e-06
2.63108e-06
2.32455e-06
2.06254e-06
1.85895e-06
1.71072e-06
1.61107e-06
1.5496e-06
1.51354e-06
1.49531e-06
1.48986e-06
1.49163e-06
1.49575e-06
1.50246e-06
1.51372e-06
1.52873e-06
1.54631e-06
1.56548e-06
1.58483e-06
1.60415e-06
1.62216e-06
1.63789e-06
1.64856e-06
1.65367e-06
0
0
0
0
0
0
0
0
0
0
0
0
0
1.27836e-06
2.66976e-06
3.14541e-06
3.25688e-06
3.11365e-06
2.81357e-06
2.45572e-06
2.12279e-06
1.85102e-06
1.64489e-06
1.49702e-06
1.39775e-06
1.337e-06
1.30133e-06
1.28257e-06
1.276e-06
1.27618e-06
1.27825e-06
1.28163e-06
1.28883e-06
1.3014e-06
1.31708e-06
1.33357e-06
1.35031e-06
1.36733e-06
1.38347e-06
1.39737e-06
1.40725e-06
1.41247e-06
0
0
0
0
0
0
0
0
0
0
0
0
0
2.00731e-06
2.99828e-06
3.32002e-06
3.29641e-06
3.04944e-06
2.67788e-06
2.28249e-06
1.94148e-06
1.67017e-06
1.46676e-06
1.3239e-06
1.22924e-06
1.16992e-06
1.1344e-06
1.11568e-06
1.10796e-06
1.10591e-06
1.10512e-06
1.10544e-06
1.10855e-06
1.11617e-06
1.12682e-06
1.13792e-06
1.14949e-06
1.16124e-06
1.17231e-06
1.18158e-06
1.18843e-06
1.19235e-06
0
0
0
0
0
0
0
0
0
0
8.47614e-09
0
5.54353e-07
2.56994e-06
3.26774e-06
3.44131e-06
3.30278e-06
2.9693e-06
2.53572e-06
2.12078e-06
1.78553e-06
1.51883e-06
1.32149e-06
1.18662e-06
1.09727e-06
1.03969e-06
1.00458e-06
9.85749e-07
9.76399e-07
9.71376e-07
9.67124e-07
9.64451e-07
9.64688e-07
9.67379e-07
9.71539e-07
9.76786e-07
9.83387e-07
9.90255e-07
9.96338e-07
1.001e-06
1.00434e-06
1.00627e-06
0
0
0
0
0
0
0
0
0
0
0
0
1.65428e-06
3.01021e-06
3.46526e-06
3.51004e-06
3.27879e-06
2.87093e-06
2.39058e-06
1.97423e-06
1.65154e-06
1.39241e-06
1.20326e-06
1.0765e-06
9.92268e-07
9.36872e-07
9.02377e-07
8.83128e-07
8.72204e-07
8.64516e-07
8.57575e-07
8.5288e-07
8.50406e-07
8.48988e-07
8.48689e-07
8.50239e-07
8.53019e-07
8.55919e-07
8.58397e-07
8.60366e-07
8.6176e-07
8.6242e-07
0
0
0
0
0
0
0
0
3.41755e-06
2.24538e-06
0
0
2.37646e-06
3.36214e-06
3.6203e-06
3.53468e-06
3.21477e-06
2.74371e-06
2.24453e-06
1.83837e-06
1.5228e-06
1.27662e-06
1.1025e-06
9.84531e-07
9.05842e-07
8.54141e-07
8.21167e-07
8.02062e-07
7.91098e-07
7.8266e-07
7.74638e-07
7.68565e-07
7.63939e-07