/*--------------------------------*- C++ -*----------------------------------*\
| =========                 |                                                 |
| \\      /  F ield         | OpenFOAM: The Open Source CFD Toolbox           |
|  \\    /   O peration     | Version:  2412                                  |
|   \\  /    A nd           | Website:  www.openfoam.com                      |
|    \\/     M anipulation  |                                                 |
\*---------------------------------------------------------------------------*/
FoamFile
{
    version     2.0;
    format      ascii;
    arch        "LSB;label=32;scalar=64";
    class       volScalarField;
    location    "0.013";
    object      J;
}
// * * * * * * * * * * * * * * * * * * * * * * * * * * * * * * * * * * * * * //

dimensions      [0 -3 -1 0 0 0 0];

internalField   nonuniform List<scalar> 
8988
(
0
0
0
0
0
0
0
0
0
0
0
0
0
0
0
0
0
0
0
0
0
0
0
0
0
0
0
0
0
0
0
0
0
0
0
0
0
0
0
0
0
0
0
0
0
0
0
0
0
0
0
0
0
0
0
0
0
0
0
0
0
0
0
0
0
0
0
0
0
0
0
0
0
0
0
0
0
0
0
0
0
0
0
0
0
0
0
0
0
0
0
0
0
0
0
0
0
0
0
0
0
0
0
0
0
0
0
0
0
0
0
0
0
0
0
0
0
0
0
0
0
0
0
0
0
0
0
0
0
0
0
0
0
0
0
0
0
0
0
0
0
0
0
0
0
0
0
0
0
0
0
0
0
0
0
0
0
0
0
0
0
0
0
0
0
0
0
0
0
0
0
0
0
0
0
0
0
0
0
0
0
0
0
0
0
0
0
0
0
0
0
0
0
0
0
0
0
0
0
0
0
0
0
0
0
0
0
0
0
0
0
0
0
0
0
0
0
0
0
0
0
0
0
0
0
0
0
0
0
0
0
0
0
0
0
0
0
0
0
0
0
0
0
0
0
0
0
0
0
0
0
0
0
0
0
0
0
0
0
0
0
0
0
0
0
0
0
0
0
0
0
0
0
0
0
0
0
0
0
0
0
0
0
0
0
0
0
0
0
0
0
0
0
0
0
0
0
0
0
0
0
0
0
0
0
0
0
0
0
0
0
0
0
0
0
0
0
0
0
0
0
0
0
0
0
0
0
0
0
0
0
0
0
0
0
0
0
0
0
0
0
0
0
0
0
0
0
0
0
0
0
0
0
0
0
0
0
0
0
0
0
0
0
0
0
0
0
0
0
0
0
0
0
0
0
0
0
0
0
0
0
0
0
0
0
0
0
0
0
0
0
0
0
0
0
0
0
0
0
0
0
0
0
0
0
0
0
0
0
0
0
0
0
0
0
0
0
0
0
0
0
0
0
0
0
0
0
0
0
0
0
0
0
0
0
0
0
0
0
0
0
0
0
0
0
0
0
0
0
0
0
0
0
0
0
0
0
0
0
0
0
0
0
0
0
0
0
0
0
0
0
0
0
0
0
0
0
0
0
0
0
0
0
0
0
0
0
0
0
0
0
0
0
0
0
0
0
0
0
0
0
0
0
0
0
0
0
0
0
0
0
0
0
0
0
0
0
0
0
0
0
0
0
0
0
0
0
0
0
0
0
0
0
0
0
0
0
0
0
0
0
0
0
0
0
0
0
0
0
0
0
0
0
0
0
0
0
0
0
0
0
0
0
0
0
0
0
0
0
0
0
0
0
0
0
0
0
0
0
0
0
0
0
0
0
0
0
0
0
0
0
0
0
0
0
0
0
0
0
0
0
0
0
0
0
0
0
0
0
0
0
0
0
0
0
0
0
0
0
0
0
0
0
0
0
0
0
0
0
0
0
0
0
0
0
0
0
0
0
0
0
0
0
0
0
0
0
0
0
0
0
0
0
0
0
0
0
0
0
0
0
0
0
0
0
0
0
0
0
0
0
0
0
0
0
0
0
0
0
0
0
0
0
0
0
0
0
0
0
0
0
0
0
0
0
0
0
0
0
0
0
0
0
0
0
0
0
0
0
0
0
0
0
0
0
0
0
0
0
0
0
0
0
0
0
0
0
0
0
0
0
0
0
0
0
0
0
0
0
0
0
0
0
0
0
0
0
0
0
0
0
0
0
0
0
0
0
0
0
0
0
0
0
0
0
0
0
0
0
0
0
0
0
0
0
0
0
0
0
0
0
0
0
0
0
0
0
0
0
0
0
0
0
0
0
0
0
0
0
0
0
0
0
0
0
0
0
0
0
0
0
0
0
0
0
0
0
0
0
0
0
0
0
0
0
0
0
0
0
0
0
0
0
0
0
0
0
0
0
0
0
0
0
0
0
0
0
0
0
0
0
0
0
0
0
0
0
0
0
0
0
0
0
0
0
0
0
0
0
0
0
0
0
0
0
0
0
0
0
0
0
0
0
0
0
0
0
0
0
0
0
0
0
0
0
0
0
0
0
0
0
0
0
0
0
0
0
0
0
0
0
0
0
0
0
0
0
0
0
0
0
0
0
0
0
0
0
0
0
0
0
0
0
0
0
0
0
0
0
0
0
0
0
0
0
0
0
0
0
0
0
0
0
0
0
0
0
0
0
0
0
0
0
0
0
0
0
0
0
0
0
0
0
0
0
0
0
0
0
0
0
0
0
0
0
0
0
0
0
0
0
0
0
0
0
0
0
0
0
0
0
0
0
0
0
0
0
0
0
0
0
0
0
0
0
0
0
0
0
0
0
0
0
0
0
0
0
0
0
0
0
0
0
0
0
0
0
0
0
0
0
0
0
0
0
0
0
0
0
0
0
0
0
0
0
0
0
0
0
0
0
0
0
0
0
0
0
0
0
0
0
0
0
0
0
0
0
0
0
0
0
0
0
0
0
0
0
0
0
0
0
0
0
0
0
0
0
0
0
0
0
0
0
0
0
0
0
0
0
0
0
0
0
0
0
0
0
0
0
0
0
0
0
0
0
0
0
0
0
0
0
0
0
0
0
0
0
0
0
0
0
0
0
0
0
0
0
0
0
0
0
0
0
0
0
0
0
0
0
0
0
0
0
0
0
0
0
0
0
0
0
0
0
0
0
0
0
0
0
0
0
0
0
0
0
0
0
0
0
0
0
0
0
0
0
0
0
0
0
0
0
0
0
0
0
0
0
0
0
0
0
0
0
0
0
0
0
0
0
0
0
0
0
0
0
0
0
0
0
0
0
0
0
0
0
0
0
0
0
0
0
0
0
0
0
0
0
0
0
0
0
0
0
0
0
0
0
0
0
0
0
0
0
0
0
0
0
0
0
0
0
0
0
0
0
0
0
0
0
0
0
0
0
0
0
0
0
0
0
0
0
0
0
0
0
0
0
0
0
0
0
0
0
0
0
0
0
0
0
0
0
0
0
0
0
0
0
0
0
0
0
0
0
0
0
0
0
0
0
0
0
0
0
0
0
0
0
0
0
0
0
0
0
0
0
0
0
0
0
0
0
0
0
0
0
0
0
0
0
0
0
0
0
0
0
0
0
0
0
0
0
0
0
0
0
0
0
0
0
0
0
0
0
0
0
0
0
0
0
0
0
0
0
0
0
0
0
0
0
0
0
0
0
0
0
0
0
0
0
0
0
0
0
0
0
0
0
0
0
0
0
0
0
0
0
0
0
0
0
0
0
0
0
0
0
0
0
0
0
0
0
0
0
0
0
0
0
0
0
0
0
0
0
0
0
0
0
0
0
0
0
0
0
0
0
0
0
0
0
0
0
0
0
0
0
0
0
0
0
0
0
0
0
0
0
0
0
0
0
0
0
0
0
0
0
0
0
0
0
0
0
0
0
0
0
0
0
0
0
0
0
0
0
0
0
0
0
0
0
0
0
0
0
0
0
0
0
0
0
0
0
0
0
0
0
0
0
0
0
0
0
0
0
0
0
0
0
0
0
0
0
0
0
0
0
0
0
0
0
0
0
0
0
0
0
0
0
0
0
0
0
0
0
0
0
0
0
0
0
0
0
0
0
0
0
0
0
0
0
0
0
0
0
0
0
0
0
0
0
0
0
0
0
0
0
0
0
0
0
0
0
0
0
0
0
0
0
0
0
0
0
0
0
0
0
0
0
0
0
0
0
0
0
0
0
0
0
0
0
0
0
0
0
0
0
0
0
0
0
0
0
0
0
0
0
0
0
0
0
0
0
0
0
0
0
0
0
0
0
0
0
0
0
0
0
0
0
0
0
0
0
0
0
0
0
0
0
0
0
0
0
0
0
0
0
0
0
0
0
0
0
0
0
0
0
0
0
0
0
0
0
0
0
0
0
0
0
0
0
0
0
0
0
0
0
0
0
0
0
0
0
0
0
0
0
0
0
0
0
0
0
0
0
0
0
0
0
0
0
0
0
0
0
0
0
0
0
0
0
0
0
0
0
0
0
0
0
0
0
0
0
0
0
0
0
0
0
0
0
0
0
0
0
0
0
0
0
0
0
0
0
0
0
0
0
0
0
0
0
0
0
0
0
0
0
0
0
0
0
0
0
0
0
0
0
0
0
0
0
0
0
0
0
0
0
0
0
0
0
0
0
0
0
0
0
0
0
0
0
0
0
0
0
0
0
0
0
0
0
0
0
0
0
0
0
0
0
0
0
0
0
0
0
0
0
0
0
0
0
0
0
0
0
0
0
0
0
0
0
0
0
0
0
0
0
0
0
0
0
0
0
0
0
0
0
0
0
0
0
0
0
0
0
0
0
0
0
0
0
0
0
0
0
0
0
0
0
0
0
0
0
0
0
0
0
0
0
0
0
0
0
0
0
0
0
0
0
0
0
0
0
0
0
0
0
0
0
0
0
0
0
0
0
0
0
0
0
0
0
0
0
0
0
0
0
0
0
0
0
0
0
0
0
0
0
0
0
0
0
0
0
0
0
0
0
0
0
0
0
0
0
0
0
0
0
0
0
0
0
0
0
0
0
0
0
0
0
0
0
0
0
0
0
0
0
0
0
0
0
0
0
0
0
0
0
0
0
0
0
0
0
0
0
0
0
0
0
0
0
0
0
0
0
0
0
0
0
0
0
0
0
0
0
0
0
0
0
0
0
0
0
0
0
0
0
0
0
0
0
0
0
0
0
0
0
0
0
0
0
0
0
0
0
0
0
0
0
0
0
0
0
0
0
0
0
0
0
0
0
0
0
0
0
0
0
0
0
0
0
0
0
0
0
0
0
0
0
0
0
0
0
0
0
0
0
0
0
0
0
0
0
0
0
0
0
0
0
0
0
0
0
0
0
0
0
0
0
0
0
0
0
0
0
0
0
0
0
0
0
0
0
0
0
0
0
0
0
0
0
0
0
0
0
0
0
0
0
0
0
0
0
0
0
0
0
0
0
0
0
0
0
0
0
0
0
0
0
0
0
0
0
0
0
0
0
0
0
0
0
0
0
0
0
0
0
0
0
0
0
0
0
0
0
0
0
0
0
0
0
0
0
0
0
0
0
0
0
0
0
0
0
0
0
0
0
0
0
0
0
0
0
0
0
0
0
0
0
0
0
0
0
0
0
0
0
0
0
0
0
0
0
0
0
0
0
0
0
0
0
0
0
0
0
0
0
0
0
0
0
0
0
0
0
0
0
0
0
0
0
0
0
0
0
0
0
0
0
0
0
0
0
0
0
0
0
0
0
0
0
0
0
0
0
0
0
0
0
0
0
0
0
0
0
0
0
0
0
0
0
0
0
0
0
0
0
0
0
0
0
0
0
0
0
0
0
0
0
0
0
0
0
0
0
0
0
0
0
0
0
0
0
0
0
0
0
0
0
0
0
0
0
0
0
0
0
0
0
0
0
0
0
0
0
0
0
0
0
0
0
0
0
0
0
0
0
0
0
0
0
0
0
0
0
0
0
0
0
0
0
0
0
0
0
0
0
0
0
0
0
0
0
0
0
0
0
0
0
0
0
0
0
0
0
0
0
0
0
0
0
0
0
0
0
0
0
0
0
0
0
0
0
0
0
0
0
0
0
0
0
0
0
0
0
0
0
0
0
0
0
0
0
0
0
0
0
0
0
0
0
0
0
0
0
0
0
0
0
0
0
0
0
0
0
0
0
0
0
0
0
0
0
0
0
0
0
0
0
0
0
0
0
0
0
0
0
0
0
0
0
0
0
0
0
0
0
0
0
0
0
0
0
0
0
0
0
0
0
0
0
0
0
0
0
0
0
0
0
0
0
0
0
0
0
0
0
0
0
0
0
0
0
0
0
0
0
0
0
0
0
0
0
0
0
0
0
0
0
0
0
0
0
0
0
0
0
0
0
0
0
0
0
0
0
0
0
0
0
0
0
0
0
0
0
0
0
0
0
0
0
0
0
0
0
0
0
0
0
0
0
0
0
0
0
0
0
0
0
0
0
0
0
0
0
0
0
0
0
0
0
0
0
0
0
0
0
0
0
0
0
0
0
0
0
0
0
0
0
0
0
0
0
0
0
0
0
0
0
0
0
0
0
0
0
0
0
0
0
0
0
0
0
0
0
0
0
0
0
0
0
0
0
0
0
0
0
0
0
0
0
0
0
0
0
0
0
0
0
0
0
0
0
0
0
0
0
0
0
0
0
0
0
0
0
0
0
0
0
0
0
0
0
0
0
0
0
0
0
0
0
0
0
0
0
0
0
0
0
0
0
0
0
0
0
0
0
0
0
0
0
0
0
0
0
0
0
0
0
0
0
0
0
0
0
0
0
0
0
0
0
0
0
0
0
0
0
0
0
0
0
0
0
0
0
0
0
0
0
0
0
0
0
0
0
0
0
0
0
0
0
0
0
0
0
0
0
0
0
0
0
0
0
0
0
0
0
0
0
0
0
0
0
0
0
0
0
0
0
0
0
0
0
0
0
0
0
0
0
0
0
0
0
0
0
0
0
0
0
0
0
0
0
0
0
0
0
0
0
0
0
0
0
0
0
0
0
0
0
0
0
0
0
0
0
0
0
0
0
0
0
0
0
0
0
0
0
0
0
0
0
0
0
0
0
0
0
0
0
0
0
0
0
0
0
0
0
0
0
0
0
0
0
0
0
0
0
0
0
0
0
0
0
0
0
0
0
0
0
0
0
0
0
0
0
0
0
0
0
0
0
0
0
0
0
0
0
0
0
0
0
0
0
0
0
0
0
0
0
0
0
0
0
0
0
0
0
0
0
0
0
0
0
0
0
0
0
0
0
0
0
0
0
0
0
0
0
0
0
0
0
0
0
0
0
0
0
0
0
0
0
0
0
0
0
0
0
0
0
0
0
0
0
0
0
0
0
0
0
0
0
0
0
0
0
0
0
0
0
0
0
0
0
0
0
0
0
0
0
0
0
0
0
0
0
0
0
0
0
0
0
0
0
0
0
0
0
0
0
0
0
0
0
0
0
0
0
0
0
0
0
0
0
0
0
0
0
0
0
0
0
0
0
0
0
0
0
0
0
0
0
0
0
0
0
0
0
0
0
0
0
0
0
0
0
0
0
0
0
0
0
0
0
0
0
0
0
0
0
0
0
0
0
0
0
0
0
0
0
0
0
0
0
0
0
0
0
0
0
0
0
0
0
0
0
0
0
0
0
0
0
0
0
0
0
0
0
0
0
0
0
0
0
0
0
0
0
0
0
0
0
0
0
0
0
0
0
0
0
0
0
0
0
0
0
0
0
0
0
0
0
0
0
0
0
0
0
0
0
0
0
0
0
0
0
0
0
0
0
0
0
0
0
0
0
0
0
0
0
0
0
0
0
0
0
0
0
0
0
0
0
0
0
0
0
0
0
0
0
0
0
0
0
0
0
0
0
0
0
0
0
0
0
0
0
0
0
0
0
0
0
0
0
0
0
0
0
0
0
0
0
0
0
0
0
0
0
0
0
0
0
0
0
0
0
0
0
0
0
0
0
0
0
0
0
0
0
0
0
0
0
0
0
0
0
0
0
0
0
0
0
0
0
0
0
0
0
0
0
0
0
0
0
0
0
0
0
0
0
0
0
0
0
0
0
0
0
0
0
0
0
0
0
0
0
0
0
0
0
0
0
0
0
0
0
0
0
0
0
0
0
0
0
0
0
0
0
0
0
0
0
0
0
0
0
0
0
0
0
0
0
0
0
0
0
0
0
0
0
0
0
0
0
0
0
0
0
0
0
0
0
0
0
0
0
0
0
0
0
0
0
0
0
0
0
0
0
0
0
0
0
0
0
0
0
0
0
0
0
0
0
0
0
0
0
0
0
0
0
0
0
0
0
0
0
0
0
0
0
0
0
0
0
0
0
0
0
0
0
0
0
0
0
0
0
0
0
0
0
0
0
0
0
0
0
0
0
0
0
0
0
0
0
0
0
0
0
0
0
0
0
0
0
0
0
0
0
0
0
0
0
0
0
0
0
0
0
0
0
0
0
0
0
0
0
0
0
0
0
0
0
0
0
0
0
0
0
0
0
0
0
0
0
0
0
0
0
0
0
0
0
0
0
0
0
0
0
0
0
0
0
0
0
0
0
0
0
0
0
0
0
0
0
0
0
0
0
0
0
0
0
0
0
0
0
0
0
0
0
0
0
0
0
0
0
0
0
0
0
0
0
0
0
0
0
0
0
0
0
0
0
0
0
0
0
0
0
0
0
0
0
0
0
0
0
0
0
0
0
0
0
0
0
0
0
0
0
0
0
0
0
0
0
0
0
0
0
0
0
0
0
0
0
0
0
0
0
0
0
0
0
0
0
0
0
0
0
0
0
0
0
0
0
0
0
0
0
0
0
0
0
0
0
0
0
0
0
0
0
0
0
0
0
0
0
0
0
0
0
0
0
0
0
0
0
0
0
0
0
0
0
0
0
0
0
0
0
0
0
0
0
0
0
0
0
0
0
0
0
0
0
0
0
0
0
0
0
0
0
0
0
0
0
0
0
0
0
0
0
0
0
0
0
0
0
0
0
0
0
0
0
0
0
0
0
0
0
0
0
0
0
0
0
0
0
0
0
0
0
0
0
0
0
0
0
0
0
0
0
0
0
0
0
0
0
0
0
0
0
0
0
0
0
0
0
0
0
0
0
0
0
0
0
0
0
0
0
0
0
0
0
0
0
0
0
0
0
0
0
0
0
0
0
0
0
0
0
0
0
0
0
0
0
4.77348e+11
4.89431e+11
5.00832e+11
5.07684e+11
5.08997e+11
5.07256e+11
5.04476e+11
5.01052e+11
4.97131e+11
4.94359e+11
4.94652e+11
5.10636e+11
4.89979e+11
0
0
0
0
0
0
0
0
0
0
0
0
0
0
0
0
0
0
0
0
0
0
0
0
8.73069e+11
1.04802e+12
1.18964e+12
1.3007e+12
1.37719e+12
1.42633e+12
1.46259e+12
1.48986e+12
1.50197e+12
1.50521e+12
1.50427e+12
1.49782e+12
1.48863e+12
1.48167e+12
1.472e+12
1.46838e+12
1.52391e+12
1.44566e+12
0
0
0
0
0
0
0
0
0
0
0
0
0
0
0
0
0
0
0
0
0
8.07326e+11
1.36536e+12
1.91415e+12
2.50513e+12
3.07612e+12
3.48381e+12
3.76997e+12
3.98296e+12
4.13751e+12
4.23358e+12
4.27798e+12
4.29387e+12
4.29902e+12
4.29377e+12
4.28117e+12
4.27027e+12
4.26497e+12
4.2198e+12
4.19342e+12
4.36408e+12
4.11971e+12
0
0
0
0
0
0
0
0
0
0
0
0
0
0
0
0
0
0
0
0
1.12378e+12
2.43701e+12
3.97111e+12
5.36777e+12
7.00883e+12
8.67851e+12
9.74598e+12
1.05417e+13
1.12206e+13
1.15919e+13
1.17435e+13
1.18504e+13
1.19378e+13
1.1914e+13
1.18609e+13
1.18742e+13
1.18546e+13
1.17805e+13
1.16034e+13
1.15341e+13
1.20412e+13
1.13609e+13
0
0
0
0
0
0
0
0
0
0
0
0
0
0
0
0
0
0
0
1.25783e+12
3.4334e+12
7.17419e+12
1.08803e+13
1.48241e+13
1.97029e+13
2.35561e+13
2.64846e+13
2.89668e+13
3.04103e+13
3.10277e+13
3.13906e+13
3.18825e+13
3.21328e+13
3.20813e+13
3.19768e+13
3.18949e+13
3.16066e+13
3.12591e+13
3.08581e+13
3.07157e+13
3.20543e+13
3.03219e+13
0
0
0
0
0
0
0
0
0
0
0
0
0
0
0
0
0
0
1.04738e+12
3.64437e+12
9.96838e+12
1.93758e+13
2.93434e+13
4.13288e+13
5.35748e+13
6.29856e+13
7.01663e+13
7.54749e+13
7.88407e+13
8.08269e+13
8.21185e+13
8.31077e+13
8.37799e+13
8.41265e+13
8.36019e+13
8.23005e+13
8.11879e+13
8.07174e+13
7.98583e+13
7.93112e+13
8.22921e+13
7.80928e+13
0
0
0
0
0
0
0
0
0
0
0
0
0
0
0
0
0
0
2.9952e+12
1.04212e+13
2.65726e+13
5.0221e+13
7.83356e+13
1.09585e+14
1.38427e+14
1.61178e+14
1.79221e+14
1.92515e+14
2.00668e+14
2.05172e+14
2.07702e+14
2.0969e+14
2.11424e+14
2.11515e+14
2.08823e+14
2.05284e+14
2.03342e+14
2.03181e+14
2.00656e+14
1.98804e+14
2.0483e+14
1.94963e+14
0
0
0
0
0
0
0
0
0
0
0
0
0
0
0
0
0
1.72785e+12
8.43351e+12
2.74088e+13
6.75999e+13
1.27163e+14
1.98534e+14
2.73589e+14
3.42481e+14
3.99063e+14
4.41848e+14
4.74505e+14
4.97752e+14
5.09509e+14
5.13519e+14
5.13599e+14
5.11977e+14
5.09868e+14
5.0694e+14
5.03225e+14
4.99047e+14
4.96572e+14
4.87856e+14
4.82605e+14
4.95393e+14
4.73407e+14
0
0
0
0
0
0
0
0
0
0
0
0
0
0
0
0
0
4.9806e+12
2.22121e+13
6.98155e+13
1.69951e+14
3.16318e+14
4.85541e+14
6.5453e+14
8.199e+14
9.6213e+14
1.05489e+15
1.12299e+15
1.18006e+15
1.21711e+15
1.22882e+15
1.22629e+15
1.21948e+15
1.21654e+15
1.21047e+15
1.19821e+15
1.18413e+15
1.17467e+15
1.15149e+15
1.13742e+15
1.16431e+15
1.11793e+15
0
0
0
0
0
0
0
0
0
0
0
0
0
0
0
0
1.609e+12
1.30331e+13
5.83975e+13
1.78808e+14
4.0729e+14
7.51856e+14
1.15878e+15
1.55354e+15
1.93854e+15
2.24767e+15
2.43509e+15
2.58949e+15
2.7242e+15
2.8423e+15
2.865e+15
2.84812e+15
2.82371e+15
2.82383e+15
2.8094e+15
2.76881e+15
2.72693e+15
2.70065e+15
2.64476e+15
2.60942e+15
2.65848e+15
2.56501e+15
0
0
0
0
0
0
0
0
0
0
0
0
0
0
0
0
4.48588e+12
3.35876e+13
1.4702e+14
4.34419e+14
9.63724e+14
1.75286e+15
2.66672e+15
3.52418e+15
4.362e+15
5.07185e+15
5.52513e+15
5.8853e+15
6.18478e+15
6.36641e+15
6.42715e+15
6.42858e+15
6.42122e+15
6.4147e+15
6.34695e+15
6.23392e+15
6.12179e+15
6.03529e+15
5.90262e+15
5.82045e+15
5.90831e+15
5.73039e+15
0
0
0
0
0
0
0
0
0
0
0
0
0
0
0
0
1.18093e+13
8.65996e+13
3.66393e+14
1.03469e+15
2.25547e+15
3.95689e+15
5.90904e+15
7.86148e+15
9.54468e+15
1.09387e+16
1.21426e+16
1.30893e+16
1.36875e+16
1.3988e+16
1.41152e+16
1.4184e+16
1.41865e+16
1.40812e+16
1.38833e+16
1.36563e+16
1.3385e+16
1.31197e+16
1.28356e+16
1.2661e+16
1.28294e+16
1.24991e+16
0
0
0
0
0
0
0
0
0
0
0
0
0
0
0
2.40275e+12
3.15356e+13
2.20231e+14
8.59362e+14
2.37682e+15
5.14431e+15
8.58578e+15
1.24464e+16
1.67325e+16
2.05358e+16
2.35891e+16
2.6254e+16
2.81814e+16
2.92944e+16
2.99356e+16
3.02934e+16
3.03942e+16
3.02412e+16
2.99008e+16
2.95048e+16
2.91041e+16
2.85119e+16
2.78551e+16
2.73054e+16
2.69783e+16
2.72179e+16
2.66149e+16
0
0
0
0
0
0
0
0
0
0
0
0
0
0
0
6.76185e+12
8.16993e+13
5.31741e+14
1.96286e+15
5.36379e+15
1.1359e+16
1.84194e+16
2.63419e+16
3.52289e+16
4.32376e+16
4.9759e+16
5.5011e+16
5.84586e+16
6.06469e+16
6.21373e+16
6.29274e+16
6.30203e+16
6.2533e+16
6.18573e+16
6.11786e+16
6.04889e+16
5.92796e+16
5.79132e+16
5.68163e+16
5.61703e+16
5.63505e+16
5.52991e+16
0
0
0
0
0
0
0
0
0
0
0
0
0
0
0
1.8262e+13
2.05608e+14
1.21319e+15
4.34342e+15
1.1691e+16
2.38058e+16
3.81165e+16
5.49366e+16
7.30785e+16
8.89475e+16
1.01909e+17
1.1199e+17
1.18284e+17
1.22435e+17
1.25468e+17
1.27053e+17
1.27245e+17
1.26403e+17
1.25506e+17
1.24461e+17
1.23198e+17
1.20787e+17
1.18091e+17
1.1588e+17
1.14536e+17
1.14318e+17
1.12424e+17
0
0
0
0
0
0
0
0
0
0
0
0
0
0
2.21106e+12
4.7277e+13
5.001e+14
2.74098e+15
9.55136e+15
2.49043e+16
4.8563e+16
7.72606e+16
1.11906e+17
1.47743e+17
1.78056e+17
2.03247e+17
2.23054e+17
2.35282e+17
2.43164e+17
2.48757e+17
2.51705e+17
2.52001e+17
2.50745e+17
2.49759e+17
2.48232e+17
2.45212e+17
2.40578e+17
2.3575e+17
2.31308e+17
2.28155e+17
2.26473e+17
2.23589e+17
0
0
0
0
0
0
0
0
0
0
0
0
0
0
6.06547e+12
1.17853e+14
1.16965e+15
6.01765e+15
2.0388e+16
5.14155e+16
9.73569e+16
1.54634e+17
2.23302e+17
2.91761e+17
3.48682e+17
3.96939e+17
4.34989e+17
4.58469e+17
4.73779e+17
4.84122e+17
4.89475e+17
4.89876e+17
4.87736e+17
4.86037e+17
4.82677e+17
4.76165e+17
4.6665e+17
4.57283e+17
4.49925e+17
4.4377e+17
4.40083e+17
4.36359e+17
0
0
0
0
0
0
0
0
0
0
0
0
0
0
1.55948e+13
2.83765e+14
2.6056e+15
1.27556e+16
4.22322e+16
1.03248e+17
1.92842e+17
3.06684e+17
4.39113e+17
5.67483e+17
6.746e+17
7.64985e+17
8.34589e+17
8.78191e+17
9.07617e+17
9.26594e+17
9.36141e+17
9.37531e+17
9.34782e+17
9.31216e+17
9.23483e+17
9.09078e+17
8.90107e+17
8.72106e+17
8.58334e+17
8.46917e+17
8.39133e+17
8.32318e+17
0
0
0
0
0
0
0
0
0
0
0
0
0
0
3.86858e+13
6.63218e+14
5.56178e+15
2.62448e+16
8.50149e+16
2.02014e+17
3.76358e+17
5.99139e+17
8.48341e+17
1.08716e+18
1.29044e+18
1.45737e+18
1.58202e+18
1.66323e+18
1.71674e+18
1.74866e+18
1.76425e+18
1.76827e+18
1.76549e+18
1.75787e+18
1.74046e+18
1.7107e+18
1.67478e+18
1.6422e+18
1.61607e+18
1.59487e+18
1.57868e+18
1.56711e+18
0
0
0
0
0
0
0
0
0
0
0
0
0
2.56574e+12
9.56539e+13
1.51237e+15
1.15945e+16
5.3055e+16
1.67316e+17
3.8823e+17
7.2392e+17
1.14987e+18
1.60947e+18
2.05072e+18
2.43343e+18
2.73844e+18
2.96198e+18
3.11217e+18
3.20508e+18
3.25495e+18
3.27867e+18
3.28682e+18
3.2832e+18
3.26683e+18
3.23069e+18
3.1736e+18
3.1092e+18
3.05216e+18
3.005e+18
2.96573e+18
2.93319e+18
2.9108e+18
0
0
0
0
0
0
0
0
0
0
0
0
0
7.04852e+12
2.38943e+14
3.36053e+15
2.39814e+16
1.06297e+17
3.23896e+17
7.37952e+17
1.37518e+18
2.17002e+18
3.00531e+18
3.81289e+18
4.51727e+18
5.0657e+18
5.4662e+18
5.73789e+18
5.89727e+18
5.97514e+18
6.0106e+18
6.02489e+18
6.01863e+18
5.985e+18
5.91538e+18
5.81385e+18
5.70451e+18
5.60579e+18
5.52006e+18
5.4452e+18
5.38105e+18
5.33708e+18
0
0
0
0
0
0
0
0
0
0
0
0
0
2.01561e+13
5.82297e+14
7.33259e+15
4.95485e+16
2.11307e+17
6.20002e+17
1.39428e+18
2.58285e+18
4.02264e+18
5.51958e+18
6.98296e+18
8.24886e+18
9.21772e+18
9.92648e+18
1.04052e+19
1.06791e+19
1.08094e+19
1.08705e+19
1.09e+19
1.08894e+19
1.08227e+19
1.0695e+19
1.05247e+19
1.03453e+19
1.0174e+19
1.00147e+19
9.86943e+18
9.74665e+18
9.66506e+18
0
0
0
0
0
0
0
0
0
0
0
0
0
5.5476e+13
1.38042e+15
1.59151e+16
1.01778e+17
4.14316e+17
1.17907e+18
2.62572e+18
4.78475e+18
7.31953e+18
9.99742e+18
1.26127e+19
1.4821e+19
1.6513e+19
1.7753e+19
1.85673e+19
1.90281e+19
1.92641e+19
1.9387e+19
1.94555e+19
1.94412e+19
1.93116e+19
1.90909e+19
1.88196e+19
1.85302e+19
1.82332e+19
1.79389e+19
1.76668e+19
1.74447e+19
1.73029e+19
0
0
0
0
0
0
0
0
0
0
0
0
2.60408e+12
1.43263e+14
3.20312e+15
3.41488e+16
2.06933e+17
8.0227e+17
2.23503e+18
4.90599e+18
8.70814e+18
1.31378e+19
1.79229e+19
2.24565e+19
2.61816e+19
2.91193e+19
3.12689e+19
3.26153e+19
3.33776e+19
3.38359e+19
3.41046e+19
3.42637e+19
3.42533e+19
3.40145e+19
3.36548e+19
3.32307e+19
3.27585e+19
3.22407e+19
3.17081e+19
3.12265e+19
3.08483e+19
3.06138e+19
0
0
0
0
0
0
0
0
0
0
0
0
7.67674e+12
3.60947e+14
7.34504e+15
7.26405e+16
4.1452e+17
1.53675e+18
4.19605e+18
8.97927e+18
1.55452e+19
2.33397e+19
3.17005e+19
3.93167e+19
4.56084e+19
5.06876e+19
5.43292e+19
5.65489e+19
5.786e+19
5.8723e+19
5.9239e+19
5.95325e+19
5.95431e+19
5.91638e+19
5.85995e+19
5.7921e+19
5.71364e+19
5.62389e+19
5.53081e+19
5.44977e+19
5.38718e+19
5.34835e+19
0
0
0
0
0
0
0
0
0
0
0
0
2.12627e+13
9.14532e+14
1.67141e+16
1.52227e+17
8.14153e+17
2.91545e+18
7.74328e+18
1.60322e+19
2.73925e+19
4.09911e+19
5.50406e+19
6.77051e+19
7.85034e+19
8.70718e+19
9.3067e+19
9.69041e+19
9.93449e+19
1.00836e+20
1.01629e+20
1.02033e+20
1.02129e+20
1.01661e+20
1.00793e+20
9.96619e+19
9.83342e+19
9.68035e+19
9.52406e+19
9.39162e+19
9.28735e+19
9.2205e+19
0
0
0
0
0
0
0
0
0
0
0
0
6.13254e+13
2.3409e+15
3.72415e+16
3.1104e+17
1.57391e+18
5.45294e+18
1.40026e+19
2.81801e+19
4.77748e+19
7.09246e+19
9.4073e+19
1.15271e+20
1.33527e+20
1.47537e+20
1.57434e+20
1.64347e+20
1.68808e+20
1.71157e+20
1.72171e+20
1.72702e+20
1.73026e+20
1.726e+20
1.71282e+20
1.69363e+20
1.67087e+20
1.64526e+20
1.61983e+20
1.59834e+20
1.58077e+20
1.56914e+20
0
0
0
0
0
0
0
0
0
0
0
2.00368e+12
1.87033e+14
5.73271e+15
8.00592e+16
6.25114e+17
2.99977e+18
9.98658e+18
2.4901e+19
4.91154e+19
8.22816e+19
1.20855e+20
1.5909e+20
1.94254e+20
2.24219e+20
2.47135e+20
2.63939e+20
2.75954e+20
2.83376e+20
2.86864e+20
2.88176e+20
2.89052e+20
2.89794e+20
2.8954e+20
2.87608e+20
2.84404e+20
2.80519e+20
2.76324e+20
2.72249e+20
2.68735e+20
2.65816e+20
2.63906e+20
0
0
0
0
0
0
0
0
0
0
0
7.5754e+12
5.14605e+14
1.33803e+16
1.70613e+17
1.23712e+18
5.57871e+18
1.79558e+19
4.37694e+19
8.46192e+19
1.39806e+20
2.03519e+20
2.66358e+20
3.23531e+20
3.72223e+20
4.10364e+20
4.38527e+20
4.57788e+20
4.69143e+20
4.74495e+20
4.76875e+20
4.78577e+20
4.79831e+20
4.7991e+20
4.77166e+20
4.7191e+20
4.65456e+20
4.58777e+20
4.52251e+20
4.46485e+20
4.41845e+20
4.39042e+20
0
0
0
0
0
0
0
0
0
0
0
2.41595e+13
1.33861e+15
3.05342e+16
3.55134e+17
2.36983e+18
1.01636e+19
3.18986e+19
7.54797e+19
1.43355e+20
2.34921e+20
3.39062e+20
4.40818e+20
5.33448e+20
6.12841e+20
6.75217e+20
7.19956e+20
7.49097e+20
7.66273e+20
7.75568e+20
7.80309e+20
7.83297e+20
7.85335e+20
7.85972e+20
7.81907e+20
7.73406e+20
7.63298e+20
7.53025e+20
7.42659e+20
7.33461e+20
7.26471e+20
7.22697e+20
0
0
0
0
0
0
0
0
0
0
0
7.13814e+13
3.36303e+15
6.63408e+16
7.15012e+17
4.4141e+18
1.82812e+19
5.55543e+19
1.27351e+20
2.40174e+20
3.906e+20
5.57192e+20
7.21111e+20
8.72004e+20
9.99564e+20
1.09737e+21
1.16571e+21
1.20979e+21
1.2371e+21
1.25344e+21
1.26194e+21
1.26696e+21
1.27065e+21
1.27158e+21
1.2646e+21
1.25107e+21
1.23602e+21
1.22045e+21
1.2045e+21
1.19104e+21
1.1813e+21
1.1764e+21
0
0
0
0
0
0
0
0
0
0
1.8499e+12
2.10212e+14
7.72229e+15
1.40473e+17
1.39169e+18
8.02869e+18
3.23649e+19
9.45571e+19
2.12575e+20
3.98747e+20
6.39306e+20
9.02293e+20
1.16602e+21
1.40735e+21
1.60597e+21
1.75595e+21
1.86118e+21
1.9305e+21
1.97472e+21
2.00137e+21
2.01536e+21
2.02421e+21
2.03102e+21
2.03074e+21
2.01804e+21
1.997e+21
1.9745e+21
1.95068e+21
1.92771e+21
1.91038e+21
1.8981e+21
1.8921e+21
0
0
0
0
0
0
0
0
0
0
6.66233e+12
5.22135e+14
1.71942e+16
2.94913e+17
2.60793e+18
1.44545e+19
5.63531e+19
1.58717e+20
3.52549e+20
6.52048e+20
1.02853e+21
1.44368e+21
1.86145e+21
2.23527e+21
2.53781e+21
2.76787e+21
2.93226e+21
3.04194e+21
3.11076e+21
3.15121e+21
3.1738e+21
3.18904e+21
3.19982e+21
3.19596e+21
3.17521e+21
3.14338e+21
3.10846e+21
3.07239e+21
3.04173e+21
3.0212e+21
3.00639e+21
2.99981e+21
0
0
0
0
0
0
0
0
0
0
1.90366e+13
1.22316e+15
3.95893e+16
5.87917e+17
4.79716e+18
2.58956e+19
9.64789e+19
2.64081e+20
5.76988e+20
1.04644e+21
1.63179e+21
2.28009e+21
2.92249e+21
3.48853e+21
3.94846e+21
4.30269e+21
4.55677e+21
4.72386e+21
4.82505e+21
4.88417e+21
4.92028e+21
4.94473e+21
4.95841e+21
4.94958e+21
4.921e+21
4.87461e+21
4.82059e+21
4.76857e+21
4.72846e+21
4.70218e+21
4.68216e+21
4.67515e+21
0
0
0
0
0
0
0
0
0
0
5.01366e+13
3.20628e+15
8.64955e+16
1.12034e+18
8.85294e+18
4.5684e+19
1.62671e+20
4.34327e+20
9.29332e+20
1.65672e+21
2.55838e+21
3.5459e+21
4.50967e+21
5.35558e+21
6.04806e+21
6.58487e+21
6.9679e+21
7.21323e+21
7.35729e+21
7.44378e+21
7.49821e+21
7.53284e+21
7.5467e+21
7.53392e+21
7.49775e+21
7.43121e+21
7.35143e+21
7.27934e+21
7.2232e+21
7.18343e+21
7.15256e+21
7.14458e+21
0
0
0
0
0
0
0
0
0
0
1.56023e+14
7.894e+15
1.72284e+17
2.14364e+18
1.61483e+19
7.87721e+19
2.70097e+20
7.03097e+20
1.47531e+21
2.5908e+21
3.94777e+21
5.41287e+21
6.83679e+21
8.08193e+21
9.09687e+21
9.88374e+21
1.04432e+22
1.0795e+22
1.10006e+22
1.11278e+22
1.12063e+22
1.12505e+22
1.12653e+22
1.12558e+22
1.12086e+22
1.11159e+22
1.10059e+22
1.09064e+22
1.08212e+22
1.07558e+22
1.07058e+22
1.06939e+22
0
0
0
0
0
0
0
0
0
4.64722e+12
4.42069e+14
1.65689e+16
3.49827e+17
4.10383e+18
2.87158e+19
1.33443e+20
4.41792e+20
1.12257e+21
2.31167e+21
3.98719e+21
5.97986e+21
8.11663e+21
1.01832e+22
1.19653e+22
1.33991e+22
1.45081e+22
1.52959e+22
1.57904e+22
1.60848e+22
1.62638e+22
1.63661e+22
1.64219e+22
1.64472e+22
1.64489e+22
1.63824e+22
1.62576e+22
1.61108e+22
1.59697e+22
1.58373e+22
1.57324e+22
1.56522e+22
1.56281e+22
0
0
0
0
0
0
0
0
0
1.58906e+13
9.94561e+14
3.65326e+16
7.22396e+17
7.57989e+18
5.01032e+19
2.22464e+20
7.12313e+20
1.76796e+21
3.55828e+21
6.00839e+21
8.87886e+21
1.19313e+22
1.48348e+22
1.72936e+22
1.92504e+22
2.07556e+22
2.18221e+22
2.24978e+22
2.29064e+22
2.3144e+22
2.3268e+22
2.33451e+22
2.33933e+22
2.3404e+22
2.33116e+22
2.31556e+22
2.29678e+22
2.27747e+22
2.25854e+22
2.24312e+22
2.23103e+22
2.22618e+22
0
0
0
0
0
0
0
0
0
3.76799e+13
2.45369e+15
8.52013e+16
1.41058e+18
1.37576e+19
8.62891e+19
3.64532e+20
1.13181e+21
2.73253e+21
5.35584e+21
8.86587e+21
1.29284e+22
1.7147e+22
2.10474e+22
2.4301e+22
2.68778e+22
2.88422e+22
3.02234e+22
3.10998e+22
3.16227e+22
3.1918e+22
3.20724e+22
3.21883e+22
3.22601e+22
3.22603e+22
3.2133e+22
3.19408e+22
3.17012e+22
3.14499e+22
3.12034e+22
3.09953e+22
3.08243e+22
3.07359e+22
0
0
0
0
0
0
0
0
0
1.13479e+14
6.77932e+15
1.79989e+17
2.67749e+18
2.47925e+19
1.446e+20
5.86266e+20
1.75901e+21
4.11079e+21
7.84788e+21
1.27562e+22
1.83274e+22
2.39055e+22
2.89007e+22
3.30228e+22
3.62649e+22
3.86902e+22
4.03651e+22
4.14164e+22
4.20314e+22
4.23844e+22
4.25828e+22
4.27468e+22
4.28397e+22
4.28378e+22
4.27019e+22
4.24895e+22
4.22076e+22
4.19057e+22
4.16038e+22
4.13368e+22
4.11071e+22
4.09628e+22
0
0
0
0
0
0
0
0
3.7543e+12
3.87232e+14
1.58452e+16
3.61569e+17
5.12054e+18
4.2665e+19
2.36508e+20
9.19972e+20
2.64957e+21
6.01924e+21
1.12087e+22
1.78457e+22
2.51536e+22
3.2185e+22
3.83121e+22
4.33187e+22
4.71819e+22
4.99651e+22
5.18195e+22
5.2969e+22
5.36452e+22
5.40448e+22
5.42689e+22
5.44476e+22
5.45311e+22
5.45194e+22
5.43786e+22
5.41476e+22
5.38433e+22
5.35159e+22
5.31731e+22
5.28579e+22
5.25739e+22
5.23655e+22
0
0
0
0
0
0
0
0
1.4926e+13
8.93266e+14
3.35208e+16
7.47655e+17
9.05085e+18
7.06431e+19
3.75632e+20
1.38074e+21
3.86012e+21
8.55055e+21
1.54738e+22
2.40395e+22
3.31233e+22
4.15187e+22
4.86616e+22
5.43862e+22
5.86349e+22
6.15288e+22
6.33752e+22
6.45394e+22
6.5246e+22
6.5669e+22
6.58965e+22
6.60659e+22
6.61498e+22
6.61267e+22
6.59605e+22
6.56882e+22
6.53657e+22
6.50291e+22
6.46766e+22
6.43637e+22
6.40708e+22
6.38235e+22
0
0
0
0
0
0
0
0
3.48398e+13
2.21318e+15
7.46804e+16
1.32723e+18
1.52347e+19
1.14825e+20
5.65189e+20
2.007e+21
5.4942e+21
1.17539e+22
2.05979e+22
3.11702e+22
4.18817e+22
5.13736e+22
5.92268e+22
6.52989e+22
6.95577e+22
7.22676e+22
7.39593e+22
7.50622e+22
7.56849e+22
7.60285e+22
7.62314e+22
7.64066e+22
7.6532e+22
7.65014e+22
7.63372e+22
7.60631e+22
7.57653e+22
7.54449e+22
7.51143e+22
7.48397e+22
7.45671e+22
7.43103e+22
0
0
0
0
0
0
0
0
9.18615e+13
5.09435e+15
1.39106e+17
2.34397e+18
2.56767e+19
1.75369e+20
8.19045e+20
2.86299e+21
7.53865e+21
1.54613e+22
2.63584e+22
3.88208e+22
5.06671e+22
6.05968e+22
6.83349e+22
7.38431e+22
7.73477e+22
7.93962e+22
8.06664e+22
8.1469e+22
8.18827e+22
8.2047e+22
8.21959e+22
8.23818e+22
8.24882e+22
8.23824e+22
8.22103e+22
8.1934e+22
8.16678e+22
8.13636e+22
8.10675e+22
8.08186e+22
8.05252e+22
8.02412e+22
0
0
0
0
0
0
0
2.76057e+12
2.25274e+14
1.07497e+16
2.67359e+17
4.06395e+18
4.04257e+19
2.58897e+20
1.17852e+21
3.96965e+21
9.95697e+21
1.97381e+22
3.25821e+22
4.61021e+22
5.80226e+22
6.76723e+22
7.50374e+22
8.00397e+22
8.27006e+22
8.4117e+22
8.49771e+22
8.54747e+22
8.56496e+22
8.55973e+22
8.56339e+22
8.5743e+22
8.58479e+22
8.58246e+22
8.58098e+22
8.57307e+22
8.56826e+22
8.55961e+22
8.54934e+22
8.53932e+22
8.52225e+22
8.49631e+22
0
0
0
0
0
0
0
6.40409e+12
5.38874e+14
2.16462e+16
4.57245e+17
6.57675e+18
6.09511e+19
3.72912e+20
1.6454e+21
5.25351e+21
1.25938e+22
2.40999e+22
3.82279e+22
5.23387e+22
6.44393e+22
7.32385e+22
7.77725e+22
7.96767e+22
7.99236e+22
7.94931e+22
7.90204e+22
7.87617e+22
7.84972e+22
7.82343e+22
7.8223e+22
7.82786e+22
7.83245e+22
7.82847e+22
7.82933e+22
7.82586e+22
7.82656e+22
7.82409e+22
7.82156e+22
7.82007e+22
7.80806e+22
7.78805e+22
0
0
0
0
0
0
0
1.60596e+13
1.09444e+15
3.33475e+16
7.09517e+17
9.97537e+18
8.52861e+19
5.07704e+20
2.15827e+21
6.57239e+21
1.53323e+22
2.84902e+22
4.36517e+22
5.73544e+22
6.65508e+22
7.0439e+22
7.18163e+22
7.23666e+22
7.19052e+22
7.09279e+22
6.98265e+22
6.89181e+22
6.82391e+22
6.78565e+22
6.77531e+22
6.76707e+22
6.76441e+22
6.76064e+22
6.76357e+22
6.76485e+22
6.77103e+22
6.77735e+22
6.78493e+22
6.79824e+22
6.7984e+22
6.79049e+22
0
0
0
0
0
0
0
3.29606e+13
1.48672e+15
4.99897e+16
1.07014e+18
1.34326e+19
1.1155e+20
6.61087e+20
2.70709e+21
8.0715e+21
1.84044e+22
3.26003e+22
4.67642e+22
5.68212e+22
6.15517e+22
6.33298e+22
6.32063e+22
6.1939e+22
5.99945e+22
5.78536e+22
5.59272e+22
5.44739e+22
5.35638e+22
5.30769e+22
5.28226e+22
5.26461e+22
5.25909e+22
5.25665e+22
5.25865e+22
5.26498e+22
5.27641e+22
5.29341e+22
5.30866e+22
5.33162e+22
5.34502e+22
5.3474e+22
0
0
0
0
0
0
0
3.90035e+13
2.10426e+15
7.39471e+16
1.37734e+18
1.64537e+19
1.42464e+20
8.23477e+20
3.29106e+21
9.67244e+21
2.09163e+22
3.4296e+22
4.5249e+22
5.14637e+22
5.33456e+22
5.29058e+22
5.08867e+22
4.78597e+22
4.45463e+22
4.15447e+22
3.92252e+22
3.76076e+22
3.66025e+22
3.60323e+22
3.56893e+22
3.54784e+22
3.53937e+22
3.53696e+22
3.53881e+22
3.5496e+22
3.56335e+22
3.58519e+22
3.60734e+22
3.63482e+22
3.65276e+22
3.6586e+22
0
0
0
0
0
0
0
5.51952e+13
3.34025e+15
9.49786e+16
1.63661e+18
2.12168e+19
1.83966e+20
1.02764e+21
4.04842e+21
1.13062e+22
2.22628e+22
3.31537e+22
4.04347e+22
4.26517e+22
4.20975e+22
3.98005e+22
3.63372e+22
3.20822e+22
2.82642e+22
2.53011e+22
2.31422e+22
2.16643e+22
2.07609e+22
2.02278e+22
1.98921e+22
1.96983e+22
1.96112e+22
1.9595e+22
1.96188e+22
1.97215e+22
1.98613e+22
2.00723e+22
2.02907e+22
2.05301e+22
2.06815e+22
2.07337e+22
0
0
0
0
0
0
0
8.13528e+13
4.0953e+15
1.01533e+17
1.96331e+18
2.5669e+19
2.1196e+20
1.16835e+21
4.51899e+21
1.17017e+22
2.09695e+22
2.88469e+22
3.21062e+22
3.13925e+22
2.9388e+22
2.61975e+22
2.19475e+22
1.78526e+22
1.46445e+22
1.24276e+22
1.09313e+22
9.9235e+21
9.28856e+21
8.91339e+21
8.68028e+21
8.54562e+21
8.47446e+21
8.45352e+21
8.46419e+21
8.51961e+21
8.60833e+21
8.74078e+21
8.88119e+21
9.02841e+21
9.12346e+21
9.16064e+21
0
0
0
0
0
0
0
8.43184e+13
3.56625e+15
1.07913e+17
2.39693e+18
3.09121e+19
2.47327e+20
1.34745e+21
4.85169e+21
1.09799e+22
1.73543e+22
2.12066e+22
2.18626e+22
2.02454e+22
1.75908e+22
1.39789e+22
1.04343e+22
7.62557e+21
5.74227e+21
4.56982e+21
3.83234e+21
3.34878e+21
3.04192e+21
2.86991e+21
2.76872e+21
2.70936e+21
2.67482e+21
2.66233e+21
2.66681e+21
2.68486e+21
2.7165e+21
2.76529e+21
2.81861e+21
2.87368e+21
2.90868e+21
2.92258e+21
0
0
0
0
0
0
0
6.07052e+13
2.83593e+15
1.06437e+17
2.34613e+18
2.99246e+19
2.46856e+20
1.35162e+21
4.52203e+21
8.80666e+21
1.25161e+22
1.38578e+22
1.29873e+22
1.10363e+22
8.35915e+21
5.69816e+21
3.65138e+21
2.33034e+21
1.57705e+21
1.15246e+21
9.06336e+20
7.60124e+20
6.70815e+20
6.19079e+20
5.91225e+20
5.75736e+20
5.67363e+20
5.64943e+20
5.6719e+20
5.71745e+20
5.79584e+20
5.91188e+20
6.04147e+20
6.17308e+20
6.25119e+20
6.27689e+20
0
0
0
0
0
0
0
3.04493e+13
2.09874e+15
8.71838e+16
1.94314e+18
2.69137e+19
2.34272e+20
1.2328e+21
3.51479e+21
6.00863e+21
7.4393e+21
7.44284e+21
6.49146e+21
4.89004e+21
3.03448e+21
1.67664e+21
8.78594e+20
4.75602e+20
2.81231e+20
1.84306e+20
1.33965e+20
1.06869e+20
9.11311e+19
8.19526e+19
7.74382e+19
7.51835e+19
7.42562e+19
7.4233e+19
7.48487e+19
7.5778e+19
7.73072e+19
7.93657e+19
8.16699e+19
8.39879e+19
8.53242e+19
8.56226e+19
0
0
0
0
0
0
0
1.39423e+13
1.29761e+15
5.72709e+16
1.46057e+18
2.25369e+19
2.0043e+20
9.34365e+20
2.21389e+21
3.31441e+21
3.5969e+21
3.30803e+21
2.56799e+21
1.56872e+21
7.72615e+20
3.27765e+20
1.33982e+20
5.92514e+19
2.97847e+19
1.71772e+19
1.14356e+19
8.60891e+18
7.07906e+18
6.20891e+18
5.79036e+18
5.62869e+18
5.60884e+18
5.64913e+18
5.73271e+18
5.85963e+18
6.05204e+18
6.29678e+18
6.57161e+18
6.85028e+18
7.01876e+18
7.05901e+18
0
0
0
0
0
0
0
5.91699e+12
5.8689e+14
3.36276e+16
1.0591e+18
1.75026e+19
1.49633e+20
5.63812e+20
1.14179e+21
1.45056e+21
1.42175e+21
1.18557e+21
7.56804e+20
3.46719e+20
1.24649e+20
3.83356e+19
1.17517e+19
4.11161e+18
1.70505e+18
8.56055e+17
5.19048e+17
3.65933e+17
2.90372e+17
2.5231e+17
2.34916e+17
2.30544e+17
2.33111e+17
2.38188e+17
2.45988e+17
2.5648e+17
2.70009e+17
2.86625e+17
3.05185e+17
3.24023e+17
3.35807e+17
3.39089e+17
0
0
0
0
0
0
0
1.6754e+12
2.62958e+14
1.95685e+16
7.00822e+17
1.28019e+19
9.37916e+19
2.94717e+20
4.94542e+20
5.41862e+20
4.81708e+20
3.34194e+20
1.59446e+20
5.1388e+19
1.21946e+19
2.49528e+18