/*--------------------------------*- C++ -*----------------------------------*\
| =========                 |                                                 |
| \\      /  F ield         | OpenFOAM: The Open Source CFD Toolbox           |
|  \\    /   O peration     | Version:  2412                                  |
|   \\  /    A nd           | Website:  www.openfoam.com                      |
|    \\/     M anipulation  |                                                 |
\*---------------------------------------------------------------------------*/
FoamFile
{
    version     2.0;
    format      ascii;
    arch        "LSB;label=32;scalar=64";
    class       volScalarField;
    location    "0.013";
    object      Knudsen_droplet;
}
// * * * * * * * * * * * * * * * * * * * * * * * * * * * * * * * * * * * * * //

dimensions      [0 0 0 0 0 0 0];

internalField   nonuniform List<scalar> 
8988
(
0
0
0
0
0
0
0
0
0
0
0
0
0
0
0
0
0
0
0
0
0
0
0
0
0
0
0
0
0
0
0
0
0
0
0
0
0
0
0
0
0
0
0
0
0
0
0
0
0
0
0
0
0
0
0
0
0
0
0
0
0
0
0
0
0
0
0
0
0
0
0
0
0
0
0
0
0
0
0
0
0
0
0
0
0
0
0
0
0
0
0
0
0
0
0
0
0
0
0
0
0
0
0
0
0
0
0
0
0
0
0
0
0
0
0
0
0
0
0
0
0
0
0
0
0
0
0
0
0
0
0
0
0
0
0
0
0
0
0
0
0
0
0
0
0
0
0
0
0
0
0
0
0
0
0
0
0
0
0
0
0
0
0
0
0
0
0
0
0
0
0
0
0
0
0
0
0
0
0
0
0
0
0
0
0
0
0
0
0
0
0
0
0
0
0
0
0
0
0
0
0
0
0
0
0
0
0
0
0
0
0
0
0
0
0
0
0
0
0
0
0
0
0
0
0
0
0
0
0
0
0
0
0
0
0
0
0
0
0
0
0
0
0
0
0
0
0
0
0
0
0
0
0
0
0
0
0
0
0
0
0
0
0
0
0
0
0
0
0
0
0
0
0
0
0
0
0
0
0
0
0
0
0
0
0
0
0
0
0
0
0
0
0
0
0
0
0
0
0
0
0
0
0
0
0
0
0
0
0
0
0
0
0
0
0
0
0
0
0
0
0
0
0
0
0
0
0
0
0
0
0
0
0
0
0
0
0
0
0
0
0
0
0
0
0
0
0
0
0
0
0
0
0
0
0
0
0
0
0
0
0
0
0
0
0
0
0
0
0
0
0
0
0
0
0
0
0
0
0
0
0
0
0
0
0
0
0
0
0
0
0
0
0
0
0
0
0
0
0
0
0
0
0
0
0
0
0
0
0
0
0
0
0
0
0
0
0
0
0
0
0
0
0
0
0
0
0
0
0
0
0
0
0
0
0
0
0
0
0
0
0
0
0
0
0
0
0
0
0
0
0
0
0
0
0
0
0
0
0
0
0
0
0
0
0
0
0
0
0
0
0
0
0
0
0
0
0
0
0
0
0
0
0
0
0
0
0
0
0
0
0
0
0
0
0
0
0
0
0
0
0
0
0
0
0
0
0
0
0
0
0
0
0
0
0
0
0
0
0
0
0
0
0
0
0
0
0
0
0
0
0
0
0
0
0
0
0
0
0
0
0
0
0
0
0
0
0
0
0
0
0
0
0
0
0
0
0
0
0
0
0
0
0
0
0
0
0
0
0
0
0
0
0
0
0
0
0
0
0
0
0
0
0
0
0
0
0
0
0
0
0
0
0
0
0
0
0
0
0
0
0
0
0
0
0
0
0
0
0
0
0
0
0
0
0
0
0
0
0
0
0
0
0
0
0
0
0
0
0
0
0
0
0
0
0
0
0
0
0
0
0
0
0
0
0
0
0
0
0
0
0
0
0
0
0
0
0
0
0
0
0
0
0
0
0
0
0
0
0
0
0
0
0
0
0
0
0
0
0
0
0
0
0
0
0
0
0
0
0
0
0
0
0
0
0
0
0
0
0
0
0
0
0
0
0
0
0
0
0
0
0
0
0
0
0
0
0
0
0
0
0
0
0
0
0
0
0
0
0
0
0
0
0
0
0
0
0
0
0
0
0
0
0
0
0
0
0
0
0
0
0
0
0
0
0
0
0
0
0
0
0
0
0
0
0
0
0
0
0
0
0
0
0
0
0
0
0
0
0
0
0
0
0
0
0
0
0
0
0
0
0
0
0
0
0
0
0
0
0
0
0
0
0
0
0
0
0
0
0
0
0
0
0
0
0
0
0
0
0
0
0
0
0
0
0
0
0
0
0
0
0
0
0
0
0
0
0
0
0
0
0
0
0
0
0
0
0
0
0
0
0
0
0
0
0
0
0
0
0
0
0
0
0
0
0
0
0
0
0
0
0
0
0
0
0
0
0
0
0
0
0
0
0
0
0
0
0
0
0
0
0
0
0
0
0
0
0
0
0
0
0
0
0
0
0
0
0
0
0
0
0
0
0
0
0
0
0
0
0
0
0
0
0
0
0
0
0
0
0
0
0
0
0
0
0
0
0
0
0
0
0
0
0
0
0
0
0
0
0
0
0
0
0
0
0
0
0
0
0
0
0
0
0
0
0
0
0
0
0
0
0
0
0
0
0
0
0
0
0
0
0
0
0
0
0
0
0
0
0
0
0
0
0
0
0
0
0
0
0
0
0
0
0
0
0
0
0
0
0
0
0
0
0
0
0
0
0
0
0
0
0
0
0
0
0
0
0
0
0
0
0
0
0
0
0
0
0
0
0
0
0
0
0
0
0
0
0
0
0
0
0
0
0
0
0
0
0
0
0
0
0
0
0
0
0
0
0
0
0
0
0
0
0
0
0
0
0
0
0
0
0
0
0
0
0
0
0
0
0
0
0
0
0
0
0
0
0
0
0
0
0
0
0
0
0
0
0
0
0
0
0
0
0
0
0
0
0
0
0
0
0
0
0
0
0
0
0
0
0
0
0
0
0
0
0
0
0
0
0
0
0
0
0
0
0
0
0
0
0
0
0
0
0
0
0
0
0
0
0
0
0
0
0
0
0
0
0
0
0
0
0
0
0
0
0
0
0
0
0
0
0
0
0
0
0
0
0
0
0
0
0
0
0
0
0
0
0
0
0
0
0
0
0
0
0
0
0
0
0
0
0
0
0
0
0
0
0
0
0
0
0
0
0
0
0
0
0
0
0
0
0
0
0
0
0
0
0
0
0
0
0
0
0
0
0
0
0
0
0
0
0
0
0
0
0
0
0
0
0
0
0
0
0
0
0
0
0
0
0
0
0
0
0
0
0
0
0
0
0
0
0
0
0
0
0
0
0
0
0
0
0
0
0
0
0
0
0
0
0
0
0
0
0
0
0
0
0
0
0
0
0
0
0
0
0
0
0
0
0
0
0
0
0
0
0
0
0
0
0
0
0
0
0
0
0
0
0
0
0
0
0
0
0
0
0
0
0
0
0
0
0
0
0
0
0
0
0
0
0
0
0
0
0
0
0
0
0
0
0
0
0
0
0
0
0
0
0
0
0
0
0
0
0
0
0
0
0
0
0
0
0
0
0
0
0
0
0
0
0
0
0
0
0
0
0
0
0
0
0
0
0
0
0
0
0
0
0
0
0
0
0
0
0
0
0
0
0
0
0
0
0
0
0
0
0
0
0
0
0
0
0
0
0
0
0
0
0
0
0
0
0
0
0
0
0
0
0
0
0
0
0
0
0
0
0
0
0
0
0
0
0
0
0
0
0
0
0
0
0
0
0
0
0
0
0
0
0
0
0
0
0
0
0
0
0
0
0
0
0
0
0
0
0
0
0
0
0
0
0
0
0
0
0
0
0
0
0
0
0
0
0
0
0
0
0
0
0
0
0
0
0
0
0
0
0
0
0
0
0
0
0
0
0
0
0
0
0
0
0
0
0
0
0
0
0
0
0
0
0
0
0
0
0
0
0
0
0
0
0
0
0
0
0
0
0
0
0
0
0
0
0
0
0
0
0
0
0
0
0
0
0
0
0
0
0
0
0
0
0
0
0
0
0
0
0
0
0
0
0
0
0
0
0
0
0
0
0
0
0
0
0
0
0
0
0
0
0
0
0
0
0
0
0
0
0
0
0
0
0
0
0
0
0
0
0
0
0
0
0
0
0
0
0
0
0
0
0
0
0
0
0
0
0
0
0
0
0
0
0
0
0
0
0
0
0
0
0
0
0
0
0
0
0
0
0
0
0
0
0
0
0
0
0
0
0
0
0
0
0
0
0
0
0
0
0
0
0
0
0
0
0
0
0
0
0
0
0
0
0
0
0
0
0
0
0
0
0
0
0
0
0
0
0
0
0
0
0
0
0
0
0
0
0
0
0
0
0
0
0
0
0
0
0
0
0
0
0
0
0
0
0
0
0
0
0
0
0
0
0
0
0
0
0
0
0
0
0
0
0
0
0
0
0
0
0
0
0
0
0
0
0
0
0
0
0
0
0
0
0
0
0
0
0
0
0
0
0
0
0
0
0
0
0
0
0
0
0
0
0
0
0
0
0
0
0
0
0
0
0
0
0
0
0
0
0
0
0
0
0
0
0
0
0
0
0
0
0
0
0
0
0
0
0
0
0
0
0
0
0
0
0
0
0
0
0
0
0
0
0
0
0
0
0
0
0
0
0
0
0
0
0
0
0
0
0
0
0
0
0
0
0
0
0
0
0
0
0
0
0
0
0
0
0
0
0
0
0
0
0
0
0
0
0
0
0
0
0
0
0
0
0
0
0
0
0
0
0
0
0
0
0
0
0
0
0
0
0
0
0
0
0
0
0
0
0
0
0
0
0
0
0
0
0
0
0
0
0
0
0
0
0
0
0
0
0
0
0
0
0
0
0
0
0
0
0
0
0
0
0
0
0
0
0
0
0
0
0
0
0
0
0
0
0
0
0
0
0
0
0
0
0
0
0
0
0
0
0
0
0
0
0
0
0
0
0
0
0
0
0
0
0
0
0
0
0
0
0
0
0
0
0
0
0
0
0
0
0
0
0
0
0
0
0
0
0
0
0
0
0
0
0
0
0
0
0
0
0
0
0
0
0
0
0
0
0
0
0
0
0
0
0
0
0
0
0
0
0
0
0
0
0
0
0
0
0
0
0
0
0
0
0
0
0
0
0
0
0
0
0
0
0
0
0
0
0
0
0
0
0
0
0
0
0
0
0
0
0
0
0
0
0
0
0
0
0
0
0
0
0
0
0
0
0
0
0
0
0
0
0
0
0
0
0
0
0
0
0
0
0
0
0
0
0
0
0
0
0
0
0
0
0
0
0
0
0
0
0
0
0
0
0
0
0
0
0
0
0
0
0
0
0
0
0
0
0
0
0
0
0
0
0
0
0
0
0
0
0
0
0
0
0
0
0
0
0
0
0
0
0
0
0
0
0
0
0
0
0
0
0
0
0
0
0
0
0
0
0
0
0
0
0
0
0
0
0
0
0
0
0
0
0
0
0
0
0
0
0
0
0
0
0
0
0
0
0
0
0
0
0
0
0
0
0
0
0
0
0
0
0
0
0
0
0
0
0
0
0
0
0
0
0
0
0
0
0
0
0
0
0
0
0
0
0
0
0
0
0
0
0
0
0
0
0
0
0
0
0
0
0
0
0
0
0
0
0
0
0
0
0
0
0
0
0
0
0
0
0
0
0
0
0
0
0
0
0
0
0
0
0
0
0
0
0
0
0
0
0
0
0
0
0
0
0
0
0
0
0
0
0
0
0
0
0
0
0
0
0
0
0
0
0
0
0
0
0
0
0
0
0
0
0
0
0
0
0
0
0
0
0
0
0
0
0
0
0
0
0
0
0
0
0
0
0
0
0
0
0
0
0
0
0
0
0
0
0
0
0
0
0
0
0
0
0
0
0
0
0
0
0
0
0
0
0
0
0
0
0
0
0
0
0
0
0
0
0
0
0
0
0
0
0
0
0
0
0
0
0
0
0
0
0
0
0
0
0
0
0
0
0
0
0
0
0
0
0
0
0
0
0
0
0
0
0
0
0
0
0
0
0
0
0
0
0
0
0
0
0
0
0
0
0
0
0
0
0
0
0
0
0
0
0
0
0
0
0
0
0
0
0
0
0
0
0
0
0
0
0
0
0
0
0
0
0
0
0
0
0
0
0
0
0
0
0
0
0
0
0
0
0
0
0
0
0
0
0
0
0
0
0
0
0
0
0
0
0
0
0
0
0
0
0
0
0
0
0
0
0
0
0
0
0
0
0
0
0
0
0
0
0
0
0
0
0
0
0
0
0
0
0
0
0
0
0
0
0
0
0
0
0
0
0
0
0
0
0
0
0
0
0
0
0
0
0
0
0
0
0
0
0
0
0
0
0
0
0
0
0
0
0
0
0
0
0
0
0
0
0
0
0
0
0
0
0
0
0
0
0
0
0
0
0
0
0
0
0
0
0
0
0
0
0
0
0
0
0
0
0
0
0
0
0
0
0
0
0
0
0
0
0
0
0
0
0
0
0
0
0
0
0
0
0
0
0
0
0
0
0
0
0
0
0
0
0
0
0
0
0
0
0
0
0
0
0
0
0
0
0
0
0
0
0
0
0
0
0
0
0
0
0
0
0
0
0
0
0
0
0
0
0
0
0
0
0
0
0
0
0
0
0
0
0
0
0
0
0
0
0
0
0
0
0
0
0
0
0
0
0
0
0
0
0
0
0
0
0
0
0
0
0
0
0
0
0
0
0
0
0
0
0
0
0
0
0
0
0
0
0
0
0
0
0
0
0
0
0
0
0
0
0
0
0
0
0
0
0
0
0
0
0
0
0
0
0
0
0
0
0
0
0
0
0
0
0
0
0
0
0
0
0
0
0
0
0
0
0
0
0
0
0
0
0
0
0
0
0
0
0
0
0
0
0
0
0
0
0
0
0
0
0
0
0
0
0
0
0
0
0
0
0
0
0
0
0
0
0
0
0
0
0
0
0
0
0
0
0
0
0
0
0
0
0
0
0
0
0
0
0
0
0
0
0
0
0
0
0
0
0
0
0
0
0
0
0
0
0
0
0
0
0
0
0
0
0
0
0
0
0
0
0
0
0
0
0
0
0
0
0
0
0
0
0
0
0
0
0
0
0
0
0
0
0
0
0
0
0
0
0
0
0
0
0
0
0
0
0
0
0
0
0
0
0
0
0
0
0
0
0
0
0
0
0
0
0
0
0
0
0
0
0
0
0
0
0
0
0
0
0
0
0
0
0
0
0
0
0
0
0
0
0
0
0
0
0
0
0
0
0
0
0
0
0
0
0
0
0
0
0
0
0
0
0
0
0
0
0
0
0
0
0
0
0
0
0
0
0
0
0
0
0
0
0
0
0
0
0
0
0
0
0
0
0
0
0
0
0
0
0
0
0
0
0
0
0
0
0
0
0
0
0
0
0
0
0
0
0
0
0
0
0
0
0
0
0
0
0
0
0
0
0
0
0
0
0
0
0
0
0
0
0
0
0
0
0
0
0
0
0
0
0
0
0
0
0
0
0
0
0
0
0
0
0
0
0
0
0
0
0
0
0
0
0
0
0
0
0
0
0
0
0
0
0
0
0
0
0
0
0
0
0
0
0
0
0
0
0
0
0
0
0
0
0
0
0
0
0
0
0
0
0
0
0
0
0
0
0
0
0
0
0
0
0
0
0
0
0
0
0
0
0
0
0
0
0
0
0
0
0
0
0
0
0
0
0
0
0
0
0
0
0
0
0
0
0
0
0
0
0
0
0
0
0
0
0
0
0
0
0
0
0
0
0
0
0
0
0
0
0
0
0
0
0
0
0
0
0
0
0
0
0
0
0
0
0
0
0
0
0
0
0
0
0
0
0
0
0
0
0
0
0
0
0
0
0
0
0
0
0
0
0
0
0
0
0
0
0
0
0
0
0
0
0
0
0
0
0
0
0
0
0
0
0
0
0
0
0
0
0
0
0
0
0
0
0
0
0
0
0
0
0
0
0
0
0
0
0
0
0
0
0
0
0
0
0
0
0
0
0
0
0
0
0
0
0
0
0
0
0
0
0
0
0
0
0
0
0
0
0
0
0
0
0
0
0
0
0
0
0
0
0
0
0
0
0
0
0
0
0
0
0
0
0
0
0
0
0
0
0
0
0
0
0
0
0
0
0
0
0
0
0
0
0
0
0
0
0
0
0
0
0
0
0
0
0
0
0
0
0
0
0
0
0
0
0
0
0
0
0
0
0
0
0
0
0
0
0
0
0
0
0
0
0
0
0
0
0
0
0
0
0
0
0
0
0
0
0
0
0
0
0
0
0
0
0
0
0
0
0
0
0
0
0
0
0
0
0
0
0
0
0
0
0
0
0
0
0
0
0
0
0
0
0
0
0
0
0
0
0
0
0
0
0
0
0
0
0
0
0
0
0
0
0
0
0
0
0
0
0
0
0
0
0
0
0
0
0
0
0
0
0
0
0
0
0
0
0
0
0
0
0
0
0
0
0
0
0
0
0
0
0
0
0
0
0
0
0
0
0
0
0
0
0
0
0
0
0
0
0
0
0
0
0
0
0
0
0
0
0
0
0
0
0
0
0
0
0
0
0
0
0
0
0
0
0
0
0
0
0
0
0
0
0
0
0
0
0
0
0
0
0
0
0
0
0
0
0
0
0
0
0
0
0
0
0
0
0
0
0
0
0
0
0
0
0
0
0
0
0
0
0
0
0
0
0
0
0
0
0
0
0
0
0
0
0
0
0
0
0
0
0
0
0
0
0
0
0
0
0
0
0
0
0
0
0
0
0
0
0
0
0
0
0
0
0
0
0
0
0
0
0
0
0
0
0
0
0
0
0
0
0
0
0
0
0
0
0
0
0
0
0
0
0
0
0
0
0
0
0
0
0
0
0
0
0
0
0
0
0
0
0
0
0
0
0
0
0
0
0
0
0
0
0
0
0
0
0
0
0
0
0
0
0
0
0
0
0
0
0
0
0
0
0
0
0
0
0
0
0
0
0
0
0
0
0
0
0
0
0
0
0
0
0
0
0
0
0
0
0
0
0
0
0
0
0
0
0
0
0
0
0
0
0
0
0
0
0
0
0
0
0
0
0
0
0
0
0
0
0
0
0
0
0
0
0
0
0
0
0
0
0
0
0
0
0
0
0
0
0
0
0
0
0
0
0
0
0
0
0
0
0
0
0
0
0
0
0
0
0
0
0
0
0
0
0
0
0
0
0
0
0
0
0
0
0
0
0
0
0
0
0
0
0
0
0
0
0
0
0
0
0
0
0
0
0
0
0
0
0
0
0
0
0
0
0
0
0
0
0
0
0
0
0
0
0
0
0
0
0
0
0
0
0
0
0
0
0
0
0
0
0
0
0
0
0
0
0
0
0
0
0
0
0
0
0
0
0
0
0
0
0
0
0
0
0
0
0
0
0
0
0
0
0
0
0
0
0
0
0
0
0
0
0
0
0
0
0
0
6748.27
6723.41
6714.44
6716.07
6726.6
0
0
0
0
0
0
0
0
0
0
0
0
0
0
0
0
0
0
0
6703.29
6695.64
0
0
0
0
0
0
0
0
0
0
0
6744.86
6715.32
6771.73
6713.91
6769.59
6725.54
6800.5
6737.19
6710.6
6745.01
6714.14
6700.35
6694.7
6691.84
6693.44
6700.2
6715.97
6712.91
6708.38
0
0
0
0
6734.99
6719.47
6721.04
6724.27
6712.39
6716
6691.44
6704.95
0
0
0
0
0
0
0
0
6819.72
6789.78
6796.4
6769.91
6776.64
6803.79
6747.38
6805.27
6749.12
6793.43
6738.75
6763.85
6786.93
6737.18
6743.49
6761.02
6726.2
6746.38
6744.1
6728.07
6725.2
6714.19
6718.55
6715.86
6707.62
6706.05
6705.9
6707.29
6709.44
6710.78
6710.54
6710.89
6713.92
6707.67
0
0
0
0
0
0
0
6769.44
6846.73
6874.54
6678.77
6807.82
6725.24
6772.12
6774.3
6734.26
6770.77
6797.13
6831.86
6838.61
6765.83
6774.07
6791.51
6784.05
6795.4
6804.82
6811.62
6816.07
6818.46
6818.95
6818.24
6817.1
6815.88
6814.61
6813.27
6811.85
6810.4
6809.03
6806.8
6805.93
6807.72
6803.43
0
0
0
6817.23
6807.2
6759.14
6646.42
6880.11
6950.24
6484.97
6788.28
6556.57
6756.71
6676.17
6773.18
6732.82
6763.41
6787.09
6802.67
6825.65
6834.65
6852.42
6877.04
6893.22
6905.92
6915.37
6921.14
6925.18
6928.11
6929.17
6928.37
6926.9
6925.55
6924.25
6922.64
6920.69
6918.66
6916.79
6914.22
6913.14
6914.82
6910.71
0
0
6887.88
6824.62
6508.13
6433.84
6586.67
6676.51
6707.68
6461.77
6629.16
6487.61
6459.88
6625.55
6573.25
6653.19
6690.66
6736.84
6765.41
6812.42
6915.19
6964.99
6992.4
7009.94
7023.08
7031.77
7036.68
7040.84
7044.12
7045.64
7044.3
7042.24
7040.68
7039.41
7037.53
7035.09
7032.64
7030.44
7027.54
7026.19
7027.61
7023.8
6856.15
6847.82
6798.03
6242.44
5861.31
6337.21
6568.21
6679.57
5890.82
6447.1
5933.84
6457.52
6326.57
6234.14
6363.22
6361.82
6444.05
6560.92
6662.84
6914.27
7029.31
7081.47
7110.19
7128.17
7141.69
7151.03
7156.45
7160.65
7163.74
7164.69
7163.75
7162.19
7160.65
7158.75
7156.11
7153.11
7150.06
7147.24
7144.21
7142.85
7144.13
7140.76
6656.77
6694.66
6542.35
5944.89
5628.9
6217.59
6526.26
6680.75
5903.86
6423.67
5867.72
7028.54
6261.58
5944.86
6004.67
6058.56
6196.62
6366.14
6721.01
7030.74
7148.66
7201.13
7230.17
7249.1
7262.06
7271.66
7279.09
7284.06
7286.42
7286.78
7285.92
7284.4
7282.3
7279.66
7276.69
7273.56
7270.04
7266.64
7263.64
7262.29
7263.41
7260.34
6050.33
6921.76
6713.24
5606.98
5549.32
6062.94
6328.47
6524.93
5802
6298.91
5716.07
6552.02
6158.13
5754.86
5827
5873.73
6786.25
6619.66
6876.45
7151.89
7269.02
7322.01
7351.92
7372.9
7386.83
7396.44
7403.83
7408.19
7409.92
7410.1
7409.14
7407.09
7404.42
7401.58
7398.65
7395.53
7391.78
7388.07
7385.22
7383.89
7384.51
7381.66
4834.22
7174.58
6695.82
3395.52
5375.08
5615.85
6407.79
6265.08
5550.49
6968.75
5574.93
6119.25
6952.93
6845.86
6868.25
6813.77
6675.32
7040.09
7113
7300.1
7396.62
7446.07
7476.45
7498.23
7512.66
7522.3
7528.94
7532.38
7533.8
7534.01
7532.75
7530.32
7527.54
7524.83
7522.06
7519.02
7515.27
7511.56
7508.61
7506.92
7506.67
7504.12
4520.53
7325.68
7418.69
7444.1
4864.82
5528.36
6179.44
7012.85
5364.42
7050.13
5835.81
6272.71
7006.8
6663.93
6587.45
6607.97
6125.56
7203.67
7307.78
7448
7526.36
7571.42
7602.26
7624.21
7638.61
7648.2
7654.48
7657.5
7658.74
7658.88
7657.48
7655
7652.4
7649.98
7647.34
7644.29
7640.49
7636.75
7633.67
7631.62
7630.49
7627.85
5524.55
6607.54
7519.44
7480.57
2727.53
4409.51
7434
7115.45
5224.94
7160.22
6292
6820.32
6905.61
6466.02
6273.07
5512.19
5787.73
7272.43
7459.03
7587.63
7656.97
7699.14
7729.7
7751.24
7765.29
7774.94
7781.28
7784.23
7785.42
7785.53
7784.14
7781.71
7779.19
7776.76
7773.86
7770.35
7766.48
7762.77
7759.34
7756.57
7754.46
7752.01
6804.38
6826.19
6641.41
7542.49
3331.2
5829.8
7742.03
7279.49
6985.95
7277.4
3824.84
6156.01
6335.89
5809.93
5593.96
4978.6
6472.34
7394.57
7614.97
7726.43
7788.31
7828.69
7858.67
7879.58
7893.24
7902.87
7909.11
7911.89
7912.98
7912.97
7911.54
7909.08
7906.45
7903.69
7900.29
7896.27
7891.97
7888.08
7884.77
7881.87
7879.72
7877.94
7700.14
7479.91
7576.75
7651.37
4666.02
7535.2
7874.55
5367.53
7785.38
6265.84
3035.47
7718.89
7154.85
7701.45
6904.6
5944.55
5874.14
7499.8
7762.59
7863.94
7921.16
7960.51
7989.68
8009.93
8023.3
8032.68
8038.54
8041.09
8042.02
8041.76
8040.22
8037.78
8035.07
8031.99
8028.19
8023.73
8019.12
8014.97
8011.52
8008.55
8006.29
8004.59
7771.04
7619.77
7657.42
6921.7
6177.91
7805.36
8055.8
6521.55
7965.36
6397.03
3871.05
7280.55
7896.5
7649.29
6775.6
7557.85
6006.53
7607.23
7898.43
7999.52
8055.26
8093.79
8121.94
8141.72
8155.1
8164.19
8169.66
8172.12
8172.79
8172.12
8170.34
8167.88
8165.11
8161.82
8157.75
8153.04
8148.26
8143.94
8140.24
8137.12
8134.71
8133.16
7966.03
7812.76
7955.89
5241.76
7766.73
7982.22
8130.87
7634.26
8188.64
7699.34
5432.67
6080.91
7647.76
7412.44
7532.68
7797.13
6406.96
7731.18
8030.47
8134.19
8190.52
8228.5
8255.61
8275.06
8288.51
8297.32
8302.52
8304.92
8305.28
8304.17
8302.1
8299.56
8296.68
8293.22
8288.98
8284.15
8279.31
8274.91
8271.03
8267.75
8265.21
8263.69
8117.54
8089.06
8007.46
7418.89
7789.41
8147.32
7591.05
7910.76
7672.04
7870.31
7501.24
6997.37
7636.92
7623.9
7789.63
8111.86
6834.34
7876.88
8165.86
8270.36
8327.5
8365.01
8391.22
8410.36
8423.7
8432.18
8437.13
8439.38
8439.43
8437.96
8435.66
8433.01
8430.04
8426.43
8422.11
8417.29
8412.49
8408.03
8403.98
8400.48
8397.78
8396.2
8206.69
7985.27
7834
7948.41
8017.81
8332.34
7552.2
8059.69
7654.51
8143.29
7820.14
7645.4
7744.52
7891.17
7982.53
8055.06
7203.12
8031.07
8304.24
8408.44
8465.9
8502.67
8528.26
8547.27
8560.35
8568.49
8573.25
8575.33
8575.17
8573.55
8571.17
8568.48
8565.39
8561.64
8557.24
8552.46
8547.69
8543.1
8538.82
8535.08
8532.2
8530.54
8293.77
8203.26
7782.14
8099.75
8259.31
8559.57
7776.82
8554.33
7806.54
8456.06
8114.53
7919.29
7960.22
8047.33
8424.86
8148.88
7529.01
8189.77
8445.71
8549.09
8605.9
8641.66
8667.13
8685.92
8698.48
8706.32
8710.87
8712.65
8712.3
8710.68
8708.38
8705.68
8702.46
8698.58
8694.16
8689.44
8684.63
8679.88
8675.37
8671.42
8668.38
8666.64
8441.23
8510.08
7895.68
8067.1
8307.75
8731.95
8157.69
8553.54
8008.32
8455.52
8525.74
8556.71
8545.25
8520.11
8568.09
8411.86
7830.88
8354.17
8590.81
8692.03
8747.14
8782.14
8807.66
8825.68
8837.44
8845.13
8849.5
8850.94
8850.47
8849.06
8846.99
8844.35
8841.07
8837.12
8832.74
8828.01
8823.08
8818.09
8813.35
8809.24
8806.07
8804.23
8572.17
8610.93
8106.56
8304.41
8664.51
8786.59
8573.53
8567.47
8717.06
8575.41
8543.26
8551.86
8541.47
8518.25
8399.46
8532.3
8100.31
8519.93
8737.84
8835.7
8889.23
8924.25
8949.44
8966.44
8977.72
8985.31
8989.38
8990.53
8990.06
8988.79
8986.79
8984.16
8980.89
8976.97
8972.62
8967.84
8962.74
8957.51
8952.57
8948.37
8945.08
8943.12
8729.22
8756.22
8304.78
8650.8
8842.5
8654.81
8771.59
8577.1
8590.64
8780.41
8605.65
8595.6
8582.01
8618.34
8635.43
8650.77
8341.97
8684.9
8885.57
8979.64
9032.65
9067.8
9091.97
9108.26
9119.5
9126.73
9130.39
9131.53
9131.16
9129.72
9127.49
9124.76
9121.65
9117.89
9113.57
9108.71
9103.46
9098.05
9092.97
9088.68
9085.25
9083.15
8880.39
8841.16
8696.33
8802.8
8850.25
8699.02
8779.15
8624.78
8622.31
8711.79
8864.67
8855.12
8667.02
8717.73
8655.59
8795.7
8564.44
8849.6
9034.6
9125.2
9177.97
9212.58
9235.59
9251.5
9262.5
9269.1
9272.48
9273.81
9273.42
9271.59
9268.94
9266.15
9263.23
9259.67
9255.37
9250.44
9245.09
9239.59
9234.46
9230.1
9226.57
9224.4
8910.14
8899.54
8795.46
9025.1
8824.64
9032.68
8846.06
8959.52
8785.37
8706.31
8879.7
8719.2
8710.06
8768.76
8791.89
8985.19
8779.49
9013.02
9183.69
9272.15
9324.62
9358.54
9380.75
9396.08
9406.41
9412.51
9415.78
9417.01
9416.31
9414.05
9411.13
9408.36
9405.56
9402.15
9397.88
9392.93
9387.56
9382.12
9377.03
9372.68
9369.17
9367.05
8872.09
8930.34
9056.7
9043.17
8887.99
9099.44
8847.56
8946.03
9076.18
8885.32
8759.26
8757.06
8750.45
8997.94
8888.76
7502.18
8893.66
9187.31
9340.73
9422.36
9472.7
9505.68
9527.08
9541.48
9551.09
9556.87
9559.8
9560.48
9559.28
9556.81
9553.94
9551.23
9548.46
9545.15
9540.9
9535.96
9530.66
9525.38
9520.44
9516.21
9512.92
9511.03
9042.64
9098.78
9173.86
9006.37
9143.47
9103.71
9187.65
8980.03
9075
9171.01
9151.66
9137.31
9027.65
8986.44
9035.06
6756.57
8981.06
9360.56
9501.03
9574.93
9622.47
9653.87
9674.12
9687.65
9696.56
9701.7
9703.84
9703.74
9702.15
9699.76
9697.06
9694.4
9691.64
9688.37
9684.13
9679.24
9674.11
9669.09
9664.4
9660.47
9657.54
9655.96
9082.33
9174.41
9124.66
9043.31
9301.19
9114.33
9204.5
9001.55
9106.44
9178.65
9166.99
9118.14
9063.05
9194.46
9226.97
7060.68
9102.23
9521.99
9659.26
9729.28
9773.81
9802.73
9821.77
9834.54
9842.4
9846.36
9847.48
9846.72
9844.93
9842.62
9839.98
9837.37
9834.64
9831.3
9827.04
9822.21
9817.33
9812.6
9808.27
9804.79
9802.24
9800.9
9048.61
9123.15
9121.82
9352.85
9303.82
9166.69
9225.74
9366.85
9134.51
9192.7
9193.58
9177.44
9313.01
9213.62
9409.2
7712.7
9265.86
9676.85
9814.73
9883.63
9925.05
9951.5
9969.43
9981.02
9987.44
9990.18
9990.49
9989.3
9987.31
9984.88
9982.19
9979.62
9976.9
9973.4
9969.1
9964.33
9959.62
9955.13
9951.22
9948.27
9946.05
9944.88
9009.21
9125.43
9199.56
9415.97
9290.16
9465.36
9240.54
9342.3
9438.32
9447.24
9439.1
9421.42
9323.85
9359.8
9581.29
8265.08
9447.13
9832.81
9969.67
10036.8
10075.3
10100
10116.5
10126.2
10131.1
10132.8
10132.5
10130.8
10128.4
10125.6
10122.8
10120.2
10117.4
10113.7
10109.4
10104.7
10100
10095.7
10092.2
10089.6
10087.7
10086.7
9358.42
9187.85
9506.98
9382.14
9335.89
9528.98
9568.61
9370.08
9474.02
9454.11
9432.95
9377.3
9349.2
9519.61
9756.69
8725.76
9636.42
9990.89
10123.8
10188.1
10224.4
10247.3
10261.6
10269.4
10272.7
10273.4
10272.3
10269.9
10266.8
10263.7
10260.7
10257.9
10254.9
10251.2
10247
10242.3
10237.7
10233.5
10230.2
10227.8
10225.9
10225.1
9417.93
9511.61
9512.09
9400.04
9391.4
9540.69
9590.44
9659.43
9476.97
9490.5
9477.67
9413.76
9612.57
9693.42
9937.65
9120.62
9829.76
10150.7
10277.1
10338.2
10372.1
10392.4
10404.1
10409.7
10411.4
10410.9
10408.6
10405.2
10401.4
10397.7
10394.4
10391.3
10388
10384.4
10380.3
10375.7
10371.1
10367.1
10363.8
10361.3
10359.4
10358.6
9366.77
9481.8
9476.84
9455.98
9756.32
9559.79
9603.4
9693.55
9738.49
9718.49
9737.03
9705.41
9620
9872.99
10119.8
9465.88
10023.1
10310.1
10428.7
10486
10516.4
10533.5
10542.5
10545.6
10545.1
10542.8
10539.2
10534.6
10530
10525.9
10522.2
10518.7
10515.3
10511.8
10507.7
10503.3
10498.9
10494.9
10491.6
10488.9
10486.9
10486.1
9353.15
9458.35
9521.6
9785.17
9742.41
9858.36
9644.51
9709.61
9742.15
9740.11
9738.2
9694.99
9776.04
10055.6
10302
9773.74
10213.7
10468
10577.8
10630.1
10656.2
10669.7
10675.4
10675.2
10671.9
10667.3
10661.9
10656.1
10650.6
10646
10641.8
10638
10634.6
10631.1
10627
10622.6
10618.3
10614.4
10611
10608.3
10606.1
10605.2
9443.59
9530.55
9597.06
9866.53
9741.25
9871.25
9952.34
9738.62
9792.52
9751.05
9776.12
9922.72
9949.82
10239.2
10491.9
10054.8
10400.1
10622.5
10722
10768
10789.4
10798.6
10800
10795.9
10789
10781.6
10774
10766.6
10760.2
10754.8
10750.1
10746.1
10742.6
10739.1
10734.9
10730.7
10726.6
10722.9
10719.6
10717
10714.9
10713.8
9520.23
9605.53
9977.46
9839.86
9783.54
9944.45
9983.19
10048.4
10038.5
10026.3
10032
9967.9
10129.2
10409.8
10231.8
10298.7
10581.5
10771.8
10859.2
10898.4
10914.4
10918.1
10913.8
10904.6
10893.7
10882.7
10872.4
10863
10855.1
10848.6
10843.3
10839.1
10835.3
10831.6
10827.5
10823.4
10819.5
10816
10813.2
10810.9
10808.9
10807.7
9905.41
9984.84
9967.74
9847.22
10155
9961.98
9987.38
10092.3
10053.7
10081
10033.3
10035.6
10313.1
10552.4
8379.99
10414.2
10769.3
10921.2
10989.1
11018.3
11027
11023.4
11012.1
10997
10980.9
10965.5
10951.6
10939.6
10929.8
10922.1
10916.2
10911.6
10907.7
10904
10900
10896.2
10892.5
10889.5
10887
10885
10883.2
10882
9892.29
9980.65
9950.08
9893.89
10124.8
10259.4
10035.2
10099.8
10089
10098.4
10063.3
10182
10497.7
10758.7
7974.59
10513.3
10942
11064
11110.2
11125.5
11123.9
11111
11091.4
11069.1
11046.5
11025.5
11007
10991.7
10979.6
10970.4
10963.5
10958.3
10954
10950.3
10946.5
10942.9
10939.6
10937
10934.9
10933.2
10931.7
10930.4
9851.59
9937.27
9955.33
10244.5
10115.7
10285.9
10350
10327.8
10318.9
10120
10321.4
10348.1
10672
10969.3
9064.69
10696.1
11082.1
11185.1
11213.5
11213.8
11199.2
11174.7
11145.1
11113.8
11083.1
11055
11030.9
11011.7
10997
10986
10977.9
10972
10967.4
10963.4
10959.5
10955.9
10952.9
10950.6
10949
10947.8
10946.6
10945.5
10130.1
10180.2
10305.8
10210.3
10159
10349.5
10394.2
10382.1
10387.4
10410.8
10307.8
10508
10841.7
11134.6
9880.94
10900.2
11208.2
11285
11294.4
11278.4
11248.5
11210.1
11168
11125.4
11084.6
11047.9
11017.3
10993.5
10975.5
10962.2
10952.9
10946.4
10941.5
10937.1
10933.1
10929.6
10926.8
10924.9
10923.7
10923.1
10922.4
10921.7
10215.9
10274.7
10319.7
10201
10550.2
10353.6
10416.2
10412.4
10387.5
10401.3
10460.4
10676.6
11006.7
11287.9
10476.9
11098.4
11316.5
11359.6
11347.9
11313.1
11264.8
11209.3
11151.4
11094.2
11040.7
10993.7
10955.5
10926.1
10904.1
10888.2
10877.6
10870.4
10865
10860.1
10855.9
10852.3
10849.7
10847.9
10847.1
10846.9
10846.7
10846.3
10276.3
10351.4
10294.2
10223.8
10586.1
10384.2
10447.6
10449.2
10420.6
10410.3
10524.1
10835.1
11160
11438.6
10953.6
11285.7
11405.6
11408.6
11370.4
11311.6
11241
11165.1
11088.3
11013.9
10945.9
10887.5
10840.5
10804.3
10777.6
10759.1
10747.3
10739.4
10733.5
10728.4
10724.4
10721
10719
10717.9
10717.8
10718.3
10718.5
10718.6
10327.8
10370
10278.2
10266.1
10575.2
10687.5
10466.7
10474.6
10438.9
10695.9
10641.9
10982.4
11304.3
11582.7
11345.7
11450.2
11467.6
11423.9
11352.8
11265.7
11169.2
11069.1
10970.5
10876.8
10791.9
10719.8
10662
10617.8
10586
10564.6
10551
10541.9
10535.4
10530
10526
10522.9
10521.3
10520.9
10521.6
10522.9
10523.8
10524.3
10416.5
10386.7
10283.5
10317.6
10592.4
10731.1
10705.7
10692.3
10733.5
10719.1
10759.6
11111.4
11431.3
11710.5
11652.7
11579.6
11496.4
11398.4
11287.7
11167.6
11042.3
10915.6
10790.9
10673.3
10568.6
10481
10411.2
10358.8
10321.9
10297.7
10282.3
10272
10264.8
10259.1
10254.9
10251.9
10250.5
10250.6
10251.9
10253.8
10255.4
10256.3
10519.8
10444
10310.2
10713.8
10579.1
10772.6
10554.5
10702.9
10758.1
10703.7
10868
11219
11541.5
11772.6
11897.4
11680.4
11490.2
11325.2
11167.4
11010.1
10850.4
10690.3
10536.7
10395.5
10272.6
10170
10088.9
10028.5
9986.54
9959.18
9941.82
9930.41
9922.57
9916.59
9912.08
9909.16
9907.94
9908.38
9910.05
9912.5
9914.62
9916.01
10690.9
10467.4
10315.6
10700.5
10567.1
10802.1
10638.9
10606.4
10751.8
10691.5
10951.7
11311.8
11682.4
12451
12261.2
11707.6
11417.4
11188.7
10981.7
10780.8
10582.3
10389.6
10208.5
10046.8
9907.08
9791.72
9701.27
9634.41
9588.17
9558.04
9538.8
9526.2
9517.49
9510.83
9505.59
9502.24
9500.89
9501.51
9503.43
9506.25
9508.79
9510.52
10084.8
10162.4
10745.3
10683.2
10536.2
10876.4
10739
10681.5
10731.6
10761.9
11028.8
11400.5
11717.9
12438.5
12493.8
11675.1
11272.9
10977.7
10718.5
10473.2
10237.3
10014.3
9813.17
9634.89
9482.54
9357.42
9259.98
9188.27
9138.54
9106
9085.39
9072.27
9063.32
9056.64
9051.5
9048.21
9046.62
9046.67
9047.66
9049.37
9050.99
9052.23
10103.7
10210
10751.6
10652.4
10543.2
10945.2
10848.7
10773.7
10763.2
10835.7
11092.8
11462
11780.9
12474.8
12534
11568.9
11050
10686.2
10375.7
10087.8
9822.19
9580.53
9365.64
9178.86
9020.97
8893.77
8796.74
8726.91
8678.38
8646.31
8624.66
8609.61
8598.47
8589.16
8580.63
8574.74
8571.74
8571.14
8573.77
8578.66
8584.35
8588.9
10114.3
10228.6
10705.3
10556.3
10514.8
10997.2
10979.5
10855.4
10806.4
10883.7
11122.5
11491.4
11779.5
12510.3
12564.7
11362.7
10732.2
10303.6
9947.64
9628.8
9347.85
9099.78
8886.46
8705.11
8555.47
8432.95
8335.47
8263.54
8214.4
8182.06
8161.41
8147.4
8136.71
8127.93
8120.25
8113.74
8109.38
8107.14
8106.45
8107.66
8109.67
8111.32
10096.2
10184
10644.3
10435.7
10459.2
11031.7
11102.6
10936.5
10871.9
10853.9
11105.4
11467.9
11901.1
12518.1
12508
11053.5
10326.3
9836.67
9446.6
9119.95
8840.1
8604.83
8408.65
8244.99
8107.47
7987.92
7894.09
7830.49
7787.14
7758.06
7738.62
7725.16
7714.8
7705.94
7697.83
7690.52
7684.89
7680.93
7678.29
7677.04
7676.65
7676.92
9869.83
10080
10580.8
10347.2
10385.9
11051.1
11095.3
11013.8
10987.5
10952.4
11044.8
11403
12286.2
12469.6
12196.7
10622.8
9831.14
9306.21
8905.29
8587.44
8331.45
8126.63
7958.09
7816.99
7693.33
7586.2
7503.6
7446.28
7408.46
7383.26
7365.87
7353.32
7343.45
7334.61
7326.26
7318.55
7312.05
7306.83
7302.9
7300.37
7299.05
7298.95
9804.84
9901.31
10138.1
10366.1
10243.7
10893.2
10874.3
10873.4
10991.4
10969.1
10951.4
11310.4
12209.4
12390
11734.4
10086.6
9262.86
8733.83
8352.61
8066.4
7850.88
7684.69
7549.27
7433.98
7329.29
7237.79
7167.54
7117.62
7084.29
7062.48
7047.69
7036.57
7027.38
7018.92
7010.82
7003.07
6996.08
6990.07
6985.39
6982.46
6981.17
6981.25
9572.13
9601.05
9926.05
10436.6
10076
10534.9
10875.8
10877.1
10678.7
10905.8
10856.6
11188.5
12066.4
11901.3
11121.4
9471.41
8660.33
8159.42
7819.59
7582.21
7415.72
7290.38
7189.34
7101.68
7017.43
6942.03
6884.16
6842.11
6813.52
6795.26
6783.25
6773.96
6765.91
6758.37
6750.94
6743.56
6736.45
6730.06
6724.96
6721.89
6720.73
6721
9303.91
9344.67
9641.19
9989.44
10000.7
10303.6
10759
10736.1
10757.8
10809.7
10714.4
10994.3
11858.5
11758.5
10383.3
8824.05
8065.18
7617.34
7333.97
7153.28
7035.18
6950.51
6882.93
6821.12
6756.26
6696.07
6649.48
6615.08
6591.57
6576.59
6566.78
6559.72
6553.78
6547.69
6541.27
6534.63
6527.95
6521.8
6516.73
6513.67
6512.62
6513.02
9128.94
9204.65
9461.61
9834.26
10379.5
10126.1
10775.9
10824.3
10760.6
10609.2
10678.3
11505.9
11221.5
11586.6
9551.69
8181.9
7509.45
7128.24
6909.63
6787.72
6716.56
6669.36
6631.16
6591.67
6544.61
6497.71
6460.72
6432.99
6413.33
6400.52
6392.92
6388.45
6384.59
6380.1
6374.82
6369.17
6363.39
6357.99
6353.34
6350.6
6349.87
6350.5
9023.31
9056.6
9385.89
9720.88
10248.1
9968.61
10681.7
10738.8
10710.2
10468.1
10701.2
10888.9
11297
11207.6
8714.88
7577.3
7016.85
6715.31
6561.2
6489.79
6459.34
6445.57
6432.87
6412.65
6379.41
6342.9
6314.05
6291.34
6274.22
6262.82
6256.99
6254.41
6252.08
6248.82
6244.62
6240.1
6235.36
6230.76
6226.72
6224.61
6224.39
6225.36
8985.24
9164.66
9373.26
9715.72
10228.4
10040.9
10610.4
10657.9
10460.3
10513.5
10562.3
11112
10796.7
10355.2
7954.2
7044.18
6596.85
6373.19
6277.94
6253.09
6259.91
6274.9
6283.92
6279.22
6256.92
6228.63
6205.16
6185.57
6170.34
6160.32
6155.52
6153.58
6151.67
6148.89
6145.4
6141.5
6137.21
6133.01
6129.5
6127.79
6127.9
6129.05
9075.12
9214.6
9422.39
9714.98
10220.6
10031
10538.5
10591.4
10758.6
10523.6
10571.5
10541.4
10748.4
9174.88
7291.75
6582.83
6247.19
6095.55
6054.4
6070.71
6109.6
6148.42
6174.39
6181.85
6171.73
6151.56
6129.97
6111.33
6097.55
6088.82
6084.07
6081.7
6079.65
6076.79
6073.1
6068.77
6064.02
6059.44
6055.64
6053.47
6053.14
6053.97
9308.75
9299.68
9520.41
9810.58
10279.8
10093.1
10560.8
10299.5
10381.1
10601.2
10571.8
10684.5
10658.1
8132.93
6759.11
6210.21
5961.75
5875.66
5881.54
5931.91
5997.63
6055.58
6095.42
6114.31
6114.01
6100.3
6080.96
6063.06
6049.85
6041.44
6036.23
6033.04
6030.6
6027.43
6022.96
6017.55
6011.85
6006.3
6001.5
5998.14
5996.7
5996.76
9481.65
9542.18
9749.17
10014.8
9785.81
10093.5
10035.5
9979.36
10245.2
10485.4
10610.5
10550.1
10086.2
7319.03
6322.81
5903.09
5731.76
5703.11
5746.44
5825.57
5914
5986.72
6038.44
6068.01
6076.03
6067.67
6051.03
6033.99
6020.62
6011.66
6005.8
6001.96
5998.81
5994.88
5989.57
5983.25
5976.68
5970.25
5964.55
5960.27
5957.88
5957.21
9724.04
9750.25
9973.06
9665.75
9872.91
10243.3
9990.56
10267
10467.6
10426.5
10877.9
10819.3
8574.33
6667.05
5952.67
5647.75
5547.21
5565.42
5637.69
5742.13
5849.73
5934.7
5997.12
6036.15
6051.52
6048.22
6034.51
6018.44
6004.69
5994.78
5988.1
5983.77
5980.09
5975.44
5969.43
5962.55
5955.41
5948.45
5942.25
5937.59
5934.82
5933.76
9764.29
9713.14
9795.3
9853.73
10222.6
10136.6
9588.4
10079.5
5212.02
7387.13
10885.9
10769.8
7579.32
6130.99
5623.45
5423.78
5391.17
5448.54
5549.66
5675.99
5796.4
5893.25
5966.71
6014.16
6036.22
6038.02
6027.35
6012.31
5998.24
5987.54
5980.33
5975.67
5971.69
5966.77
5960.46
5953.3
5945.82
5938.53
5932.1
5927.36
5924.51
5923.32
9588.05
9613.94
9842.25
9909.72
9928.82
5040.3
9872.64
9738.33
9728.67
9780.17
10787.7
10653.4
6698.62
5700.1
5341.87
5228.59
5251.83
5346.75
5478.17
5620.34
5751.1
5860.47
5943.56
5998.5
6027.17
6033.86
6026.25
6012.63
5998.74
5987.68
5980.13
5975.3
5971.27
5966.43
5960.26
5953.07
5945.5
5938.09
5931.6
5926.91
5924.07
5922.82
9610.01
9813.27
8750
9600.84
8520.13
10149.5
9922.11
9526.2
10542.3
10869.3
10995.6
7694.08
5956.88
5330.3
5106.56
5062.6
5130.26
5260.3
5417.38
5573.93
5715.38
5834.79
5926.42
5988.66
6022.9
6033.79
6029.35
6017.31
6003.86
5992.77
5985.01
5980.36
5976.61
5972.2
5966.43
5959.46
5952.11
5944.79
5938.36
5933.75
5930.94
5929.69
9988.15
10020.4
9599.13
9923.5
9977.24
10037.6
8817.95
9887.42
8858.98
10183.6
10916.9
6390.54
5385.61
5019.14
4907.35
4924.03
5029.96
5189.85
5368.72
5537.15
5687.94
5816.37
5915.31
5983.49
6022.81
6037.81
6035.95
6025.14
6012.11
6001.23
5993.55
5989.31
5986
5982.14
5976.93
5970.39
5963.47
5956.42
5950.18
5945.68
5942.94
5941.79
9672.77
9197.66
9966.4
10320.9
9644.32
7586.4
4568.64
8940.13
8258.03
9992.68
11127.8
5650.11
4956.88
4763.32
4739.4
4809.9
4949.74
5138.58
5332.56
5508.13
5668.53
5804.68
5909.91
5984.03
6027.93
6045.97
6045.96
6036.19
6023.6
6012.91
6005.17
6001.27
5998.34
5995.01
5990.3
5984.21
5977.74
5971.06
5965.12
5960.73
5958.03
5956.98
9538.84
9864.47
8122.58
9454.06
8440.42
9599.72
9548.76
10578.5
10689.3
10856.4
6602.13
5036