/*--------------------------------*- C++ -*----------------------------------*\
| =========                 |                                                 |
| \\      /  F ield         | OpenFOAM: The Open Source CFD Toolbox           |
|  \\    /   O peration     | Version:  2412                                  |
|   \\  /    A nd           | Website:  www.openfoam.com                      |
|    \\/     M anipulation  |                                                 |
\*---------------------------------------------------------------------------*/
FoamFile
{
    version     2.0;
    format      ascii;
    arch        "LSB;label=32;scalar=64";
    class       volScalarField;
    location    "0.013";
    object      Mach;
}
// * * * * * * * * * * * * * * * * * * * * * * * * * * * * * * * * * * * * * //

dimensions      [0 0 0 0 0 0 0];

internalField   nonuniform List<scalar> 
8988
(
0.468432
0.46875
0.469076
0.469273
0.46944
0.469584
0.469676
0.469774
0.469835
0.469875
0.469889
0.469912
0.469933
0.469954
0.469974
0.469997
0.470029
0.470071
0.470118
0.470167
0.470215
0.470261
0.470306
0.470353
0.470395
0.470443
0.470497
0.470559
0.470627
0.470696
0.47077
0.470847
0.470928
0.471009
0.471091
0.47117
0.471245
0.471315
0.471376
0.471426
0.471462
0.471479
0.466603
0.466924
0.467137
0.467637
0.4679
0.468396
0.468724
0.468925
0.46908
0.4692
0.46929
0.469378
0.469449
0.469506
0.469563
0.469636
0.469713
0.469798
0.469882
0.469969
0.470057
0.470144
0.470232
0.47032
0.470415
0.470534
0.470659
0.470785
0.470903
0.471015
0.471123
0.471222
0.471323
0.471422
0.471519
0.471617
0.47171
0.471796
0.471872
0.471933
0.471978
0.471998
0.46711
0.467463
0.467997
0.468354
0.468457
0.468527
0.46876
0.469011
0.469152
0.469359
0.469512
0.469649
0.469734
0.469854
0.469962
0.470063
0.470152
0.470233
0.470315
0.470398
0.470481
0.470566
0.470653
0.470742
0.47083
0.470919
0.471007
0.471095
0.471182
0.471273
0.47137
0.47147
0.471576
0.471686
0.471796
0.471906
0.472009
0.472097
0.472167
0.472223
0.472268
0.472271
0.467964
0.468403
0.468707
0.469077
0.469231
0.468996
0.469074
0.46919
0.469382
0.469499
0.469754
0.470028
0.47029
0.470489
0.470632
0.47074
0.47082
0.470892
0.470959
0.471031
0.471106
0.471187
0.47127
0.471355
0.471436
0.471511
0.471584
0.471661
0.471737
0.471815
0.471892
0.47197
0.472047
0.472125
0.472199
0.47227
0.472338
0.472398
0.47245
0.472499
0.472537
0.472521
0.468829
0.469142
0.46958
0.469914
0.469761
0.469764
0.469446
0.469553
0.469669
0.469797
0.470092
0.470519
0.47091
0.471203
0.47139
0.471513
0.471597
0.471669
0.471726
0.471788
0.471855
0.471931
0.472006
0.472082
0.472151
0.472215
0.472273
0.47233
0.472387
0.472443
0.472497
0.472546
0.472589
0.472628
0.472663
0.472697
0.472733
0.47277
0.472805
0.472845
0.472882
0.472862
0.469608
0.469956
0.470507
0.470551
0.470462
0.470338
0.470051
0.469993
0.470048
0.47023
0.470498
0.471032
0.471526
0.471916
0.472171
0.472331
0.472427
0.4725
0.472567
0.472632
0.472688
0.472751
0.472818
0.472885
0.472945
0.473001
0.473052
0.473099
0.473143
0.473187
0.473229
0.473266
0.473294
0.473314
0.473325
0.473329
0.473333
0.473339
0.473347
0.473367
0.473384
0.473344
0.470432
0.470777
0.471226
0.471488
0.47126
0.470991
0.470857
0.470504
0.470546
0.470628
0.470938
0.471474
0.472071
0.472546
0.472891
0.473122
0.473244
0.473333
0.473407
0.473486
0.473547
0.473602
0.473666
0.473732
0.473794
0.473853
0.473909
0.47396
0.474008
0.474052
0.474092
0.474125
0.474148
0.47416
0.474159
0.474148
0.47413
0.47411
0.47409
0.474089
0.474079
0.474034
0.47119
0.471564
0.47208
0.472415
0.471995
0.471757
0.471341
0.47116
0.470965
0.471063
0.471409
0.472005
0.472684
0.473216
0.47364
0.473919
0.474105
0.474214
0.474298
0.474393
0.474473
0.474533
0.474598
0.474667
0.474736
0.4748
0.474862
0.474921
0.474975
0.475022
0.475062
0.475095
0.475118
0.475129
0.475129
0.475117
0.475092
0.47506
0.475024
0.475007
0.474973
0.474924
0.47219
0.472587
0.47278
0.473144
0.472856
0.472452
0.471826
0.471539
0.471551
0.47182
0.472308
0.472925
0.473542
0.474066
0.474495
0.474805
0.47504
0.475188
0.475287
0.475389
0.475484
0.475553
0.475618
0.475691
0.475765
0.475834
0.475902
0.475967
0.476026
0.476078
0.47612
0.476153
0.476178
0.476193
0.476198
0.476192
0.476174
0.476145
0.476108
0.476095
0.476047
0.476008
0.473289
0.473582
0.474072
0.473964
0.473821
0.473346
0.472799
0.472345
0.472275
0.472625
0.473195
0.473823
0.47443
0.475006
0.475436
0.475783
0.476046
0.476249
0.476386
0.476487
0.476587
0.476667
0.476737
0.476808
0.476885
0.47696
0.477031
0.4771
0.477164
0.477219
0.477265
0.477302
0.477332
0.477354
0.477369
0.477375
0.47737
0.477355
0.47733
0.477334
0.477282
0.477266
0.474383
0.4747
0.475112
0.475306
0.474789
0.474311
0.473689
0.473299
0.473269
0.47367
0.47423
0.474848
0.475497
0.476046
0.476545
0.47691
0.477191
0.477423
0.477604
0.477717
0.477812
0.477897
0.477967
0.478035
0.478108
0.478183
0.478254
0.478322
0.478387
0.478445
0.478497
0.478541
0.47858
0.478614
0.478643
0.478665
0.47868
0.478687
0.478683
0.478712
0.478662
0.478678
0.475546
0.475914
0.476032
0.476189
0.475748
0.475242
0.47467
0.474453
0.474622
0.474961
0.475454
0.476096
0.476718
0.477245
0.477758
0.478157
0.478455
0.478705
0.478909
0.479041
0.479141
0.479226
0.479292
0.479355
0.479425
0.479496
0.479565
0.479632
0.479698
0.479761
0.479821
0.479877
0.47993
0.479981
0.480029
0.480073
0.480113
0.480147
0.48017
0.480226
0.480183
0.48023
0.476664
0.476892
0.477284
0.477175
0.476874
0.476393
0.475859
0.47564
0.475787
0.476229
0.476795
0.477432
0.478063
0.478613
0.479103
0.479512
0.479823
0.480086
0.480289
0.480431
0.480542
0.480626
0.480687
0.480749
0.480819
0.48089
0.48096
0.48103
0.481102
0.481175
0.481249
0.481323
0.481396
0.481469
0.481541
0.481611
0.481678
0.481743
0.481794
0.481875
0.481843
0.481917
0.47812
0.478303
0.478557
0.478463
0.47809
0.477365
0.476851
0.476512
0.476798
0.477459
0.478183
0.47889
0.479506
0.480058
0.480539
0.480931
0.481259
0.481524
0.481724
0.481882
0.482002
0.482089
0.482153
0.48222
0.482298
0.482379
0.482458
0.482538
0.482623
0.482711
0.482804
0.482899
0.482996
0.483094
0.483191
0.483288
0.483382
0.483477
0.483556
0.483661
0.483641
0.48373
0.478901
0.479165
0.479346
0.479326
0.478926
0.478396
0.478185
0.478144
0.478438
0.478996
0.479662
0.480325
0.480955
0.481521
0.482
0.482414
0.48276
0.48303
0.483249
0.483424
0.483554
0.483648
0.483722
0.483797
0.483888
0.483984
0.484079
0.484175
0.484277
0.484385
0.484498
0.484615
0.484736
0.484857
0.484979
0.485101
0.485219
0.48534
0.485444
0.485569
0.485562
0.48566
0.480272
0.480474
0.480677
0.480604
0.480016
0.479733
0.479337
0.479441
0.479821
0.480373
0.481054
0.481749
0.482418
0.483026
0.483544
0.483992
0.484356
0.484648
0.484891
0.48508
0.485227
0.48533
0.485413
0.485501
0.485608
0.485722
0.485836
0.485951
0.486072
0.486199
0.486331
0.486468
0.486609
0.486751
0.486894
0.487037
0.487173
0.487313
0.487435
0.487574
0.48758
0.48768
0.482096
0.482225
0.482529
0.482298
0.481825
0.481093
0.480559
0.480416
0.480834
0.481561
0.482402
0.483241
0.48401
0.484672
0.48524
0.485713
0.486093
0.486411
0.486668
0.48688
0.487036
0.487148
0.487242
0.487342
0.487463
0.487594
0.487725
0.487858
0.487996
0.48814
0.488289
0.488443
0.488599
0.488757
0.488915
0.489072
0.489219
0.489369
0.489501
0.489646
0.489663
0.489753
0.483842
0.48408
0.484341
0.484063
0.48334
0.482664
0.482084
0.481989
0.482321
0.483075
0.484015
0.484956
0.485807
0.486533
0.487138
0.487625
0.488027
0.48836
0.488625
0.488858
0.489014
0.489129
0.48923
0.489335
0.489463
0.489602
0.489745
0.489889
0.490038
0.490191
0.490351
0.490514
0.490681
0.490849
0.491017
0.491183
0.491337
0.49149
0.491625
0.491769
0.491794
0.491867
0.485847
0.485999
0.486021
0.485804
0.485224
0.484307
0.483883
0.48384
0.484338
0.485123
0.486061
0.487027
0.487898
0.488642
0.489251
0.489747
0.490156
0.490488
0.490761
0.491006
0.491166
0.491277
0.491375
0.491479
0.491605
0.491745
0.491891
0.492041
0.492195
0.492355
0.492519
0.492687
0.492857
0.493028
0.493197
0.493365
0.493519
0.493671
0.493803
0.493942
0.493973
0.494025
0.488146
0.48845
0.488447
0.48835
0.487541
0.486547
0.485922
0.485391
0.485934
0.486981
0.488135
0.489222
0.490138
0.490889
0.491494
0.492001
0.492411
0.492748
0.493039
0.493291
0.493465
0.493579
0.493671
0.493777
0.493899
0.494037
0.494181
0.494326
0.494475
0.494629
0.494789
0.494951
0.495117
0.495285
0.495451
0.495616
0.495769
0.495916
0.496046
0.496179
0.496216
0.49625
0.49062
0.490934
0.491184
0.490943
0.489904
0.488969
0.48787
0.487508
0.487806
0.48894
0.490272
0.491483
0.492474
0.493264
0.493891
0.494408
0.494818
0.495165
0.495458
0.495704
0.495901
0.49601
0.496083
0.496182
0.496295
0.496427
0.496565
0.496705
0.496849
0.496997
0.49715
0.497306
0.497466
0.497629
0.497791
0.497952
0.498102
0.498248
0.498376
0.498505
0.498548
0.498563
0.493506
0.493832
0.493663
0.493512
0.492701
0.491379
0.490275
0.489676
0.490001
0.490968
0.492337
0.493672
0.494786
0.495664
0.496347
0.496883
0.497315
0.497678
0.497967
0.498226
0.498437
0.498548
0.498607
0.498698
0.498803
0.498928
0.499059
0.499189
0.499325
0.499466
0.499614
0.499766
0.499922
0.500081
0.500238
0.500394
0.50054
0.500683
0.500809
0.500934
0.50098
0.500979
0.496777
0.496699
0.49662
0.496191
0.495208
0.494174
0.492798
0.492097
0.492088
0.492941
0.494384
0.495876
0.497142
0.498128
0.498879
0.49945
0.499911
0.500287
0.500578
0.500848
0.501069
0.501182
0.501226
0.501307
0.501405
0.501525
0.50165
0.501776
0.501905
0.502041
0.502185
0.502334
0.502487
0.502643
0.502797
0.50295
0.503093
0.503234
0.503357
0.503477
0.503525
0.503509
0.499367
0.499382
0.499401
0.498864
0.497869
0.496964
0.495394
0.494726
0.494434
0.495185
0.496665
0.498254
0.499606
0.500672
0.501486
0.502107
0.502598
0.502981
0.503293
0.503565
0.503784
0.503912
0.503956
0.504019
0.504113
0.50423
0.504354
0.504476
0.5046
0.504732
0.504873
0.505021
0.50517
0.505322
0.505472
0.505621
0.505761
0.505899
0.50602
0.506134
0.506184
0.506155
0.501719
0.501803
0.501944
0.501432
0.50051
0.499407
0.498178
0.497391
0.497285
0.497969
0.499261
0.500763
0.502155
0.503299
0.504176
0.504845
0.505372
0.505767
0.506108
0.506386
0.506602
0.506755
0.506807
0.506847
0.506942
0.507057
0.507179
0.507298
0.507417
0.507542
0.507676
0.507816
0.50796
0.508107
0.508252
0.508396
0.508531
0.508665
0.508783
0.508895
0.508949
0.508909
0.504645
0.504884
0.505026
0.504588
0.503339
0.502189
0.500761
0.499956
0.499761
0.500548
0.501893
0.50345
0.504897
0.506091
0.507041
0.507745
0.508284
0.508712
0.509069
0.509344
0.509556
0.509717
0.50978
0.509789
0.509875
0.509984
0.510103
0.51022
0.510336
0.510458
0.510584
0.510716
0.510851
0.51099
0.511128
0.511266
0.511394
0.511522
0.511638
0.511747
0.511806
0.511757
0.507854
0.507907
0.508018
0.507449
0.506525
0.505048
0.503752
0.502701
0.502705
0.503439
0.504728
0.50628
0.50775
0.508979
0.509975
0.510728
0.511264
0.511718
0.512081
0.512348
0.512576
0.512755
0.512831
0.512828
0.51291
0.513017
0.513131
0.513243
0.513355
0.513472
0.513589
0.513711
0.513837
0.513966
0.514095
0.514223
0.514344
0.514467
0.51458
0.514689
0.514752
0.514693
0.511404
0.511678
0.511603
0.511044
0.509551
0.508227
0.506796
0.505688
0.505399
0.506136
0.507463
0.509074
0.51064
0.511945
0.512975
0.51377
0.51435
0.514828
0.515203
0.515469
0.515713
0.515897
0.515975
0.515961
0.516037
0.516139
0.516249
0.516357
0.516464
0.516572
0.51668
0.516792
0.516909
0.517029
0.517148
0.517268
0.517382
0.517501
0.517612
0.51772
0.517789
0.517719
0.514132
0.514396
0.514476
0.513941
0.512918
0.511344
0.509934
0.508904
0.508667
0.509334
0.510679
0.512295
0.513863
0.515187
0.516225
0.517015
0.517625
0.518107
0.518467
0.51875
0.518995
0.519168
0.519246
0.519231
0.519284
0.51937
0.519473
0.519574
0.519671
0.519768
0.519864
0.519964
0.520069
0.52018
0.520291
0.520403
0.520511
0.520626
0.520738
0.520845
0.520918
0.520837
0.517753
0.517626
0.517625
0.517077
0.515885
0.514712
0.513096
0.512072
0.511821
0.512461
0.513891
0.515592
0.517183
0.518509
0.519557
0.520359
0.520993
0.521485
0.521857
0.522156
0.522389
0.522553
0.522635
0.522631
0.522653
0.522719
0.522809
0.522896
0.522982
0.523067
0.523151
0.523237
0.52333
0.523429
0.523533
0.523639
0.523742
0.523853
0.52396
0.524065
0.52414
0.524046
0.521255
0.521226
0.52104
0.520412
0.519187
0.517997
0.516317
0.515278
0.515028
0.515755
0.517241
0.518967
0.520586
0.521934
0.523001
0.523829
0.524477
0.524971
0.52535
0.525645
0.525859
0.526013
0.526099
0.526105
0.526101
0.526153
0.526228
0.526307
0.526386
0.526466
0.526545
0.526625
0.526708
0.526795
0.526888
0.526985
0.527082
0.527184
0.527282
0.527379
0.527453
0.527345
0.52487
0.525191
0.524811
0.524181
0.523074
0.5215
0.520046
0.518686
0.518315
0.518942
0.520375
0.522122
0.523823
0.525265
0.52641
0.527299
0.527976
0.528489
0.528882
0.529177
0.529391
0.52955
0.529642
0.529657
0.529636
0.529688
0.529755
0.529828
0.529898
0.529968
0.530041
0.530118
0.530198
0.530279
0.530362
0.530448
0.530535
0.530625
0.53071
0.530793
0.530862
0.530738
0.528971
0.529047
0.528843
0.52816
0.526895
0.525602
0.523657
0.522373
0.521716
0.522086
0.523405
0.525179
0.526984
0.528555
0.529801
0.530758
0.531482
0.532032
0.532452
0.532762
0.532996
0.533162
0.533255
0.533284
0.533258
0.533303
0.533368
0.533446
0.533516
0.53358
0.533645
0.533718
0.533794
0.533872
0.533947
0.534021
0.534093
0.534169
0.534238
0.534307
0.534366
0.534226
0.532489
0.532773
0.532725
0.531997
0.530679
0.529046
0.527392
0.526059
0.525408
0.525728
0.526848
0.528513
0.530348
0.531994
0.533306
0.534304
0.535067
0.535643
0.536068
0.536404
0.536667
0.536842
0.536944
0.536987
0.536967
0.537004
0.537056
0.537139
0.537218
0.537288
0.537355
0.537425
0.537495
0.537567
0.537634
0.537697
0.537753
0.537811
0.537864
0.537919
0.537966
0.537813
0.536595
0.53687
0.536859
0.536081
0.534539
0.532974
0.531292
0.529831
0.528855
0.529145
0.530302
0.53202
0.533882
0.535545
0.536899
0.537941
0.538748
0.539362
0.539813
0.540179
0.540455
0.540633
0.540748
0.540806
0.540797
0.54083
0.540871
0.54095
0.541029
0.541101
0.541171
0.541239
0.541303
0.541365
0.541421
0.54147
0.541511
0.541551
0.541586
0.541624
0.541657
0.541492
0.540705
0.5409
0.540776
0.540048
0.538482
0.537082
0.535332
0.533732
0.532732
0.532867
0.533902
0.535636
0.537538
0.539249
0.54064
0.541721
0.542566
0.543211
0.543695
0.544077
0.54437
0.544569
0.544694
0.544754
0.544741
0.544769
0.544801
0.544868
0.544941
0.545008
0.545073
0.545136
0.545193
0.545241
0.545285
0.545324
0.545347
0.54537
0.545386
0.545409
0.545427
0.545256
0.545121
0.545052
0.544622
0.544014
0.542927
0.541314
0.539676
0.537717
0.536826
0.536582
0.537618
0.539388
0.541341
0.543109
0.544551
0.54567
0.546532
0.5472
0.547695
0.548073
0.548385
0.548608
0.54874
0.548802
0.548796
0.548812
0.548838
0.548896
0.548956
0.549011
0.549064
0.549116
0.549156
0.549194
0.549226
0.549248
0.549257
0.549266
0.549269
0.549281
0.549283
0.549111
0.549332
0.549407
0.548964
0.548365
0.547057
0.545577
0.543513
0.542075
0.54077
0.540677
0.54163
0.543334
0.545296
0.547114
0.548599
0.549749
0.550629
0.551314
0.551821
0.552217
0.552539
0.552759
0.552886
0.552949
0.552952
0.55295
0.552965
0.553014
0.553065
0.553113
0.553154
0.553184
0.553209
0.553232
0.553242
0.553245
0.553238
0.553234
0.553228
0.553236
0.553226
0.55306
0.553406
0.553796
0.553449
0.55264
0.551449
0.549538
0.547752
0.546094
0.544972
0.544832
0.545787
0.547459
0.549441
0.551282
0.552784
0.553954
0.554858
0.555553
0.55608
0.556494
0.556805
0.557015
0.557152
0.557219
0.557218
0.55719
0.557189
0.557225
0.557264
0.557301
0.557327
0.557339
0.557346
0.557349
0.55734
0.557327
0.557306
0.557291
0.557276
0.557283
0.557266
0.557111
0.557725
0.557944
0.557835
0.557115
0.555624
0.554185
0.552301
0.550629
0.549332
0.549014
0.549839
0.551561
0.553607
0.555494
0.557042
0.558239
0.559173
0.559878
0.560401
0.56082
0.561132
0.561339
0.561482
0.561557
0.561553
0.561503
0.561487
0.561507
0.561532
0.561551
0.561563
0.561565
0.561558
0.561547
0.561528
0.561508
0.561479
0.561457
0.561433
0.561438
0.561413
0.561267
0.5626
0.562467
0.562123
0.561508
0.560506
0.558842
0.55724
0.55506
0.554018
0.553149
0.553783
0.555511
0.557611
0.559609
0.561282
0.56254
0.563519
0.564249
0.564775
0.565211
0.565545
0.565759
0.565888
0.565951
0.565942
0.565882
0.565856
0.565858
0.565866
0.56587
0.565867
0.565858
0.565841
0.565824
0.565806
0.565785
0.565758
0.565734
0.565707
0.565711
0.565677
0.565537
0.567154
0.56721
0.567015
0.566339
0.565036
0.56379
0.561469
0.560025
0.558434
0.557476
0.557859
0.55946
0.5616
0.563767
0.565549
0.566901
0.567926
0.568686
0.569234
0.569678
0.57002
0.570241
0.570359
0.570404
0.570386
0.570324
0.570289
0.570273
0.57027
0.570269
0.570258
0.570243
0.57022
0.570197
0.570177
0.570156
0.570133
0.570116
0.570096
0.570107
0.57007
0.569938
0.571311
0.571588
0.571418
0.570726
0.569301
0.567765
0.565959
0.564276
0.563089
0.562591
0.562872
0.564071
0.566033
0.568125
0.569923
0.571334
0.572403
0.573191
0.57377
0.574217
0.574552
0.574775
0.574897
0.57494
0.574923
0.574862
0.57481
0.574775
0.574767
0.574763
0.57475
0.574733
0.574713
0.574692
0.57467
0.574646
0.574621
0.574609
0.574597
0.574619
0.574582
0.574462
0.576292
0.576406
0.576166
0.575546
0.574143
0.572638
0.570898
0.569085
0.56746
0.56661
0.566927
0.56841
0.570483
0.572551
0.574344
0.575772
0.576859
0.577676
0.578303
0.578776
0.579116
0.579354
0.579499
0.579554
0.579544
0.579486
0.579418
0.579376
0.579368
0.57937
0.579361
0.579346
0.579327
0.579309
0.579288
0.579264
0.579239
0.579226
0.579215
0.579243
0.579204
0.579096
0.580541
0.580871
0.580944
0.580441
0.579
0.577287
0.575428
0.573698
0.572002
0.571248
0.571641
0.573045
0.575025
0.577063
0.578846
0.580279
0.581377
0.582207
0.582856
0.583352
0.58371
0.583972
0.58415
0.584232
0.584233
0.584179
0.584104
0.584067
0.584062
0.584072
0.584071
0.584061
0.584047
0.584033
0.584021
0.584007
0.583988
0.583975
0.583959
0.583984
0.583936
0.583835
0.585525
0.585957
0.585618
0.58508
0.584072
0.582326
0.580307
0.578464
0.576855
0.575802
0.576135
0.577482
0.57941
0.581451
0.583257
0.584728
0.585872
0.586743
0.587417
0.587939
0.588332
0.588624
0.588825
0.588933
0.588955
0.588914
0.588844
0.588822
0.588827
0.588849
0.58886
0.588859
0.588854
0.588849
0.588845
0.588841
0.588831
0.588824
0.588806
0.58883
0.588772
0.588678
0.590713
0.590951
0.590909
0.590238
0.588853
0.587279
0.585285
0.583247
0.581638
0.580793
0.580832
0.581874
0.583717
0.585806
0.587696
0.589221
0.590406
0.591321
0.592039
0.59259
0.593024
0.593364
0.593594
0.59372
0.593758
0.593727
0.593662
0.59365
0.593664
0.593695
0.593715
0.593728
0.593737
0.593744
0.593749
0.593752
0.593751
0.593753
0.593744
0.593775
0.593715
0.593633
0.596314
0.596335
0.595926
0.595238
0.594045
0.592296
0.590514
0.58813
0.586678
0.585317
0.585295
0.586389
0.588265
0.590408
0.592354
0.593935
0.595147
0.596062
0.59682
0.597407
0.597853
0.598237
0.598501
0.598633
0.598677
0.59866
0.598606
0.598594
0.598609
0.598642
0.598667
0.598687
0.598704
0.598722
0.598734
0.598742
0.598746
0.598758
0.598759
0.598802
0.598746
0.598678
0.601279
0.601276
0.601067
0.600282
0.598986
0.597563
0.59512
0.593324
0.59154
0.590206
0.589953
0.591043
0.592917
0.595132
0.597167
0.598798
0.600036
0.600986
0.601747
0.602346
0.602822
0.603242
0.603519
0.603649
0.603692
0.603681
0.603641
0.603627
0.603634
0.603673
0.603711
0.603742
0.603765
0.603785
0.603801
0.603815
0.603826
0.603844
0.603852
0.603904
0.603853
0.603798
0.606627
0.606399
0.606027
0.605371
0.604075
0.602597
0.600379
0.598355
0.596373
0.59514
0.594812
0.595735
0.597687
0.600017
0.602142
0.603844
0.605069
0.606089
0.606843
0.607374
0.607901
0.608342
0.608609
0.608737
0.608791
0.608786
0.608746
0.608729
0.608736
0.608782
0.608833
0.608876
0.608904
0.608925
0.608947
0.608971
0.608992
0.609019
0.609031
0.609087
0.60904
0.60899
0.611494
0.611467
0.611031
0.610464
0.609241
0.607529
0.605678
0.602932
0.601455
0.600045
0.599929
0.600976
0.602915
0.605122
0.607218
0.60896
0.61021
0.611252
0.612026
0.612571
0.613115
0.613531
0.613771
0.613907
0.613966
0.613959
0.613916
0.613903
0.613915
0.613963
0.614018
0.614061
0.614093
0.614126
0.614161
0.614197
0.614231
0.614268
0.614289
0.61435
0.614307
0.614258
0.61661
0.616855
0.616715
0.615965
0.614457
0.612704
0.610818
0.608558
0.606699
0.605177
0.605053
0.606166
0.608083
0.610268
0.612355
0.614095
0.615454
0.616527
0.617337
0.617941
0.618444
0.618811
0.619043
0.619173
0.619214
0.619193
0.619155
0.619143
0.619156
0.619209
0.619264
0.619309
0.619348
0.619389
0.619434
0.619484
0.619529
0.619577
0.619612
0.619685
0.619654
0.619606
0.621627
0.621963
0.621815
0.621157
0.620138
0.618011
0.615962
0.613794
0.611943
0.610698
0.610683
0.611699
0.613449
0.615563
0.617615
0.619364
0.620775
0.621864
0.622685
0.62331
0.623808
0.624166
0.6244
0.624534
0.624574
0.624555
0.62452
0.624499
0.624495
0.62454
0.624592
0.624641
0.624687
0.624736
0.624789
0.624846
0.624901
0.624959
0.625005
0.625088
0.62507
0.625022
0.627093
0.627548
0.62724
0.626673
0.625716
0.623901
0.621809
0.619582
0.617726
0.616396
0.616111
0.616977
0.618762
0.620905
0.622951
0.624693
0.626106
0.627241
0.62809
0.628724
0.62923
0.629604
0.629839
0.629962
0.630007
0.629999
0.629967
0.629947
0.629939
0.629976
0.630026
0.630075
0.630127
0.630182
0.630237
0.630294
0.630353
0.630417
0.630473
0.630562
0.63055
0.6305
0.633286
0.633408
0.633179
0.63251
0.631266
0.629552
0.627614
0.62523
0.623211
0.62188
0.621413
0.62221
0.624127
0.626236
0.628272
0.63003
0.631458
0.632589
0.633493
0.634161
0.634665
0.635063
0.635335
0.635474
0.63552
0.635524
0.635503
0.635479
0.635475
0.635514
0.635562
0.635611
0.635659
0.635713
0.635769
0.635828
0.635889
0.635959
0.636022
0.636114
0.63611
0.636056
0.639508
0.639661
0.639366
0.638612
0.637277
0.635485
0.633517
0.63114
0.629024
0.627575
0.626775
0.627287
0.629209
0.631425
0.633564
0.635425
0.636911
0.638047
0.638991
0.639711
0.640238
0.640643
0.640945
0.641107
0.641152
0.641156
0.641142
0.641108
0.641099
0.641136
0.641188
0.641241
0.641286
0.641338
0.641397
0.641457
0.641516
0.641581
0.641642
0.641729
0.641731
0.641669
0.645304
0.645546
0.645322
0.644534
0.643243
0.641409
0.639435
0.637064
0.635062
0.633223
0.632232
0.632665
0.634505
0.636791
0.639052
0.640966
0.642498
0.643691
0.64462
0.645363
0.645929
0.646346
0.646645
0.64683
0.646896
0.646891
0.646867
0.64683
0.646813
0.646839
0.64689
0.646942
0.646987
0.647039
0.647098
0.647157
0.647213
0.647274
0.647329
0.647409
0.647413
0.647338
0.650749
0.651153
0.651303
0.650502
0.649236
0.646734
0.644832
0.642751
0.640565
0.638746
0.638233
0.63873
0.640249
0.642463
0.644732
0.646664
0.648232
0.649445
0.650364
0.651108
0.651699
0.652125
0.652431
0.652636
0.652721
0.652723
0.652701
0.652666
0.652644
0.65265
0.652691
0.652735
0.652774
0.652821
0.652871
0.652922
0.652971
0.653027
0.653075
0.653148
0.653154
0.653064
0.656981
0.657248
0.657064
0.656404
0.654947
0.652929
0.650964
0.648828
0.646501
0.644687
0.6438
0.644284
0.645951
0.6482
0.650444
0.652411
0.654014
0.655273
0.65624
0.656998
0.657577
0.658002
0.658329
0.658535
0.658614
0.658616
0.658593
0.658554
0.65854
0.658538
0.658571
0.658612
0.658647
0.658681
0.658717
0.658755
0.658792
0.658838
0.658877
0.658941
0.658947
0.658844
0.663041
0.663486
0.663345
0.662593
0.66134
0.659084
0.657096
0.654933
0.65279
0.650583
0.649825
0.650171
0.651656
0.653868
0.656206
0.658247
0.659883
0.661155
0.662128
0.662879
0.663475
0.663933
0.664262
0.664467
0.664562
0.664572
0.66454
0.664493
0.66449
0.664484
0.664512
0.664548
0.664578
0.664606
0.664633
0.66466
0.664684
0.664717
0.664743
0.664795
0.664794
0.66468
0.669546
0.669592
0.66932
0.668662
0.667191
0.665468
0.66335
0.660925
0.658456
0.656692
0.655777
0.656031
0.657512
0.659713
0.662108
0.664267
0.665906
0.667247
0.668192
0.668877
0.669464
0.669941
0.670278
0.670485
0.670623
0.670648
0.670602
0.670542
0.670534
0.670508
0.670518
0.670543
0.670566
0.670587
0.670606
0.670621
0.670632
0.670653
0.670669
0.67071
0.6707
0.67058
0.676154
0.676213
0.675867
0.674994
0.673504
0.671785
0.669797
0.666937
0.664841
0.662842
0.661806
0.662019
0.663494
0.665775
0.668202
0.670375
0.672067
0.673362
0.674358
0.675011
0.675625
0.67609
0.676394
0.676649
0.676805
0.676814
0.676765
0.676697
0.676671
0.676619
0.676616
0.676623
0.676623
0.676626
0.67663
0.676633
0.676633
0.676644
0.67665
0.676683
0.67667
0.676547
0.682869
0.682618
0.681996
0.681194
0.679985
0.678294
0.67601
0.673179
0.671215
0.669157
0.667908
0.668191
0.669626
0.671914
0.674366
0.676499
0.678251
0.679572
0.680546
0.681308
0.681932
0.682381
0.682696
0.68293
0.683041
0.683038
0.682986
0.682901
0.682852
0.682798
0.682799
0.682788
0.682767
0.682747
0.682736
0.682728
0.682717
0.68271
0.682698
0.682716
0.682697
0.68257
0.689245
0.689026
0.688403
0.687768
0.686698
0.685026
0.681885
0.679855
0.677745
0.675498
0.674265
0.674543
0.675873
0.678076
0.680505
0.682655
0.684429
0.685819
0.686825
0.687627
0.688235
0.688717
0.689042
0.689244
0.689331
0.689327
0.689261
0.689151
0.6891
0.689047
0.689041
0.689016
0.688973
0.688937
0.688913
0.688891
0.688867
0.688847
0.68882
0.688829
0.6888
0.688666
0.695409
0.695452
0.695164
0.694295
0.693064
0.691379
0.688681
0.686328
0.684139
0.682116
0.680826
0.680992
0.682223
0.684297
0.686698
0.688906
0.690669
0.692105
0.693093
0.693932
0.694572
0.695101
0.695444
0.695629
0.695702
0.69568
0.695598
0.695485
0.695438
0.695373
0.695348
0.695307
0.695252
0.695201
0.695161
0.69512
0.695075
0.695041
0.695006
0.695013
0.694978
0.694846
0.702259
0.702218
0.701942
0.701139
0.699789
0.69812
0.695264
0.69309
0.690929
0.688774
0.687275
0.687275
0.688447
0.690558
0.69295
0.695177
0.696913
0.698362
0.699401
0.700221
0.70094
0.701483
0.701841
0.702041
0.702129
0.7021
0.70201
0.701903
0.701846
0.701758
0.701711
0.701658
0.701597
0.701534
0.701477
0.701416
0.701353
0.701301
0.701255
0.70126
0.70122
0.701093
0.708655
0.709046
0.708681
0.707918
0.706574
0.704959
0.701853
0.699925
0.697808
0.695515
0.693952
0.693711
0.69493
0.69707
0.699404
0.701545
0.703314
0.704744
0.705861
0.706666
0.70739
0.707921
0.708269
0.708489
0.708596
0.708571
0.708477
0.708368
0.708297
0.708197
0.708139
0.708074
0.708001
0.707924
0.707844
0.707768
0.707698
0.70764
0.707586
0.707578
0.707521
0.707399
0.715429
0.715668
0.715576
0.714651
0.713117
0.711295
0.709219
0.706516
0.704068
0.70209
0.700763
0.70045
0.701476
0.703512
0.705806
0.707966
0.709779
0.711207
0.712318
0.713193
0.713905
0.714428
0.714788
0.715028
0.715142
0.715127
0.715035
0.714916
0.714815
0.714702
0.714633
0.714554
0.714472
0.71438
0.714283
0.714197
0.714122
0.71406
0.713998
0.713976
0.713903
0.713788
0.722453
0.722615
0.722488
0.721625
0.719854
0.718132
0.716133
0.713325
0.710825
0.708715
0.707318
0.706927
0.707973
0.709924
0.712206
0.714422
0.716271
0.717715
0.718826
0.719719
0.720409
0.720908
0.721297
0.721559
0.721689
0.721699
0.721625
0.721509
0.721391
0.721278
0.721194
0.721101
0.721015
0.720916
0.720813
0.720721
0.720635
0.720562
0.720487
0.720453
0.720371
0.720268
0.729789
0.729675
0.729059
0.728101
0.726817
0.725326
0.723173
0.719747
0.71771
0.715616
0.713837
0.713492
0.714372
0.716208
0.718624
0.72091
0.72281
0.724302
0.725463
0.7263
0.726925
0.727436
0.727856
0.72813
0.728262
0.728293
0.72823
0.728108
0.727993
0.727901
0.727812
0.727712
0.727622
0.72752
0.727417
0.727318
0.727222
0.727137
0.727049
0.727005
0.726918
0.726827
0.73623
0.736182
0.735523
0.734802
0.733536
0.731893
0.729851
0.726937
0.724428
0.722088
0.720574
0.720135
0.721016
0.722848
0.725151
0.727407
0.729371
0.730877
0.732029
0.732899
0.733479
0.734052
0.734476
0.734742
0.734895
0.73495
0.734884
0.734753
0.734645
0.734556
0.734454
0.73435
0.734258
0.73416
0.734064
0.733969
0.733873
0.733786
0.733693
0.73365
0.733561
0.733482
0.742542
0.742976
0.743004
0.742078
0.740328
0.73833
0.736339
0.734055
0.731204
0.729087
0.727194
0.726667
0.72747
0.729278
0.731606
0.733913
0.735882
0.73747
0.738639
0.739524
0.7402
0.740761
0.741176
0.74144
0.741614
0.741662
0.741584
0.741459
0.741354
0.741259
0.741156
0.741061
0.740969
0.740868
0.740772
0.740676
0.740578
0.740491
0.740404
0.740373
0.740287
0.740224
0.749318
0.749866
0.750131
0.749126
0.747069
0.745286
0.74341
0.741249
0.738013
0.736006
0.734043
0.733176
0.73391
0.735716
0.738054
0.74047
0.742544
0.744087
0.745338
0.746229
0.746922
0.747485
0.747881
0.748218
0.748411
0.748439
0.748364
0.748251
0.748137
0.748026
0.747927
0.747847
0.74775
0.74764
0.74754
0.747442
0.747343
0.747257
0.747176
0.747155
0.747066
0.747018
0.756269
0.7568
0.757079
0.756114
0.753875
0.752297
0.75044
0.748217
0.744996
0.742957
0.740909
0.739844
0.740545
0.742306
0.744733
0.74716
0.749257
0.750849
0.752024
0.75304
0.753695
0.754259
0.754694
0.755059
0.755235
0.755254
0.755187
0.755074
0.754948
0.754831
0.754737
0.754668
0.754576
0.754465
0.754364
0.754266
0.754171
0.754092
0.754019
0.754
0.7539
0.753869
0.763423
0.763844
0.763966
0.763112
0.760858
0.759331
0.757498
0.754961
0.752212
0.749873
0.747738
0.746729
0.747309
0.748971
0.751427
0.753885
0.755969
0.757635
0.758835
0.759886
0.760605
0.76114
0.761596
0.761941
0.762103
0.762122
0.762055
0.761938
0.761812
0.7617
0.761602
0.761533
0.761445
0.761342
0.761247
0.761154
0.761065
0.760996
0.760929
0.760904
0.760794
0.760781
0.770629
0.770764
0.770735
0.769753
0.768128
0.766483
0.764639
0.761735
0.759248
0.756871
0.754675
0.753667
0.754066
0.75571
0.758191
0.760662
0.76284
0.764467
0.765715
0.766782
0.767517
0.768063
0.768494
0.768844
0.769016
0.76903
0.768959
0.768854
0.768743
0.768638
0.768541
0.768474
0.768382
0.76828
0.768187
0.768097
0.768016
0.767958
0.767896
0.767868
0.767751
0.767761
0.777925
0.777975
0.777612
0.776543
0.775243
0.773834
0.771859
0.768481
0.766262
0.763989
0.761653
0.760515
0.760878
0.762555
0.765089
0.767558
0.769711
0.771426
0.772695
0.773729
0.774506
0.775028
0.775482
0.775812
0.775973
0.775995
0.775933
0.775823
0.775702
0.775595
0.77551
0.775452
0.775371
0.775281
0.77519
0.7751
0.775018
0.774961
0.774905
0.774882
0.774767
0.774797
0.785466
0.785106
0.784296
0.783732
0.782716
0.781139
0.778216
0.77571
0.773498
0.771028
0.768657
0.767388
0.76766
0.769458
0.771987
0.774475
0.776652
0.778383
0.779704
0.780737
0.781478
0.782058
0.78249
0.782797
0.78297
0.783033
0.782982
0.78286
0.782732
0.78263
0.782542
0.78247
0.782388
0.782306
0.782231
0.782158
0.782082