/*--------------------------------*- C++ -*----------------------------------*\
| =========                 |                                                 |
| \\      /  F ield         | OpenFOAM: The Open Source CFD Toolbox           |
|  \\    /   O peration     | Version:  2412                                  |
|   \\  /    A nd           | Website:  www.openfoam.com                      |
|    \\/     M anipulation  |                                                 |
\*---------------------------------------------------------------------------*/
FoamFile
{
    version     2.0;
    format      ascii;
    arch        "LSB;label=32;scalar=64";
    class       volScalarField;
    location    "0.013";
    object      N;
}
// * * * * * * * * * * * * * * * * * * * * * * * * * * * * * * * * * * * * * //

dimensions      [-1 0 0 0 0 0 0];

internalField   nonuniform List<scalar> 
8988
(
0
0
0
0
0
0
0
0
0
0
0
0
0
0
0
0
0
0
0
0
0
0
0
0
0
0
0
0
0
0
0
0
0
0
0
0
0
0
0
0
0
0
0
0
0
0
0
0
0
0
0
0
0
0
0
0
0
0
0
0
0
0
0
0
0
0
0
0
0
0
0
0
0
0
0
0
0
0
0
0
0
0
0
0
0
0
0
0
0
0
0
0
0
0
0
0
0
0
0
0
0
0
0
0
0
0
0
0
0
0
0
0
0
0
0
0
0
0
0
0
0
0
0
0
0
0
0
0
0
0
0
0
0
0
0
0
0
0
0
0
0
0
0
0
0
0
0
0
0
0
0
0
0
0
0
0
0
0
0
0
0
0
0
0
0
0
0
0
0
0
0
0
0
0
0
0
0
0
0
0
0
0
0
0
0
0
0
0
0
0
0
0
0
0
0
0
0
0
0
0
0
0
0
0
0
0
0
0
0
0
0
0
0
0
0
0
0
0
0
0
0
0
0
0
0
0
0
0
0
0
0
0
0
0
0
0
0
0
0
0
0
0
0
0
0
0
0
0
0
0
0
0
0
0
0
0
0
0
0
0
0
0
0
0
0
0
0
0
0
0
0
0
0
0
0
0
0
0
0
0
0
0
0
0
0
0
0
0
0
0
0
0
0
0
0
0
0
0
0
0
0
0
0
0
0
0
0
0
0
0
0
0
0
0
0
0
0
0
0
0
0
0
0
0
0
0
0
0
0
0
0
0
0
0
0
0
0
0
0
0
0
0
0
0
0
0
0
0
0
0
0
0
0
0
0
0
0
0
0
0
0
0
0
0
0
0
0
0
0
0
0
0
0
0
0
0
0
0
0
0
0
0
0
0
0
0
0
0
0
0
0
0
0
0
0
0
0
0
0
0
0
0
0
0
0
0
0
0
0
0
0
0
0
0
0
0
0
0
0
0
0
0
0
0
0
0
0
0
0
0
0
0
0
0
0
0
0
0
0
0
0
0
0
0
0
0
0
0
0
0
0
0
0
0
0
0
0
0
0
0
0
0
0
0
0
0
0
0
0
0
0
0
0
0
0
0
0
0
0
0
0
0
0
0
0
0
0
0
0
0
0
0
0
0
0
0
0
0
0
0
0
0
0
0
0
0
0
0
0
0
0
0
0
0
0
0
0
0
0
0
0
0
0
0
0
0
0
0
0
0
0
0
0
0
0
0
0
0
0
0
0
0
0
0
0
0
0
0
0
0
0
0
0
0
0
0
0
0
0
0
0
0
0
0
0
0
0
0
0
0
0
0
0
0
0
0
0
0
0
0
0
0
0
0
0
0
0
0
0
0
0
0
0
0
0
0
0
0
0
0
0
0
0
0
0
0
0
0
0
0
0
0
0
0
0
0
0
0
0
0
0
0
0
0
0
0
0
0
0
0
0
0
0
0
0
0
0
0
0
0
0
0
0
0
0
0
0
0
0
0
0
0
0
0
0
0
0
0
0
0
0
0
0
0
0
0
0
0
0
0
0
0
0
0
0
0
0
0
0
0
0
0
0
0
0
0
0
0
0
0
0
0
0
0
0
0
0
0
0
0
0
0
0
0
0
0
0
0
0
0
0
0
0
0
0
0
0
0
0
0
0
0
0
0
0
0
0
0
0
0
0
0
0
0
0
0
0
0
0
0
0
0
0
0
0
0
0
0
0
0
0
0
0
0
0
0
0
0
0
0
0
0
0
0
0
0
0
0
0
0
0
0
0
0
0
0
0
0
0
0
0
0
0
0
0
0
0
0
0
0
0
0
0
0
0
0
0
0
0
0
0
0
0
0
0
0
0
0
0
0
0
0
0
0
0
0
0
0
0
0
0
0
0
0
0
0
0
0
0
0
0
0
0
0
0
0
0
0
0
0
0
0
0
0
0
0
0
0
0
0
0
0
0
0
0
0
0
0
0
0
0
0
0
0
0
0
0
0
0
0
0
0
0
0
0
0
0
0
0
0
0
0
0
0
0
0
0
0
0
0
0
0
0
0
0
0
0
0
0
0
0
0
0
0
0
0
0
0
0
0
0
0
0
0
0
0
0
0
0
0
0
0
0
0
0
0
0
0
0
0
0
0
0
0
0
0
0
0
0
0
0
0
0
0
0
0
0
0
0
0
0
0
0
0
0
0
0
0
0
0
0
0
0
0
0
0
0
0
0
0
0
0
0
0
0
0
0
0
0
0
0
0
0
0
0
0
0
0
0
0
0
0
0
0
0
0
0
0
0
0
0
0
0
0
0
0
0
0
0
0
0
0
0
0
0
0
0
0
0
0
0
0
0
0
0
0
0
0
0
0
0
0
0
0
0
0
0
0
0
0
0
0
0
0
0
0
0
0
0
0
0
0
0
0
0
0
0
0
0
0
0
0
0
0
0
0
0
0
0
0
0
0
0
0
0
0
0
0
0
0
0
0
0
0
0
0
0
0
0
0
0
0
0
0
0
0
0
0
0
0
0
0
0
0
0
0
0
0
0
0
0
0
0
0
0
0
0
0
0
0
0
0
0
0
0
0
0
0
0
0
0
0
0
0
0
0
0
0
0
0
0
0
0
0
0
0
0
0
0
0
0
0
0
0
0
0
0
0
0
0
0
0
0
0
0
0
0
0
0
0
0
0
0
0
0
0
0
0
0
0
0
0
0
0
0
0
0
0
0
0
0
0
0
0
0
0
0
0
0
0
0
0
0
0
0
0
0
0
0
0
0
0
0
0
0
0
0
0
0
0
0
0
0
0
0
0
0
0
0
0
0
0
0
0
0
0
0
0
0
0
0
0
0
0
0
0
0
0
0
0
0
0
0
0
0
0
0
0
0
0
0
0
0
0
0
0
0
0
0
0
0
0
0
0
0
0
0
0
0
0
0
0
0
0
0
0
0
0
0
0
0
0
0
0
0
0
0
0
0
0
0
0
0
0
0
0
0
0
0
0
0
0
0
0
0
0
0
0
0
0
0
0
0
0
0
0
0
0
0
0
0
0
0
0
0
0
0
0
0
0
0
0
0
0
0
0
0
0
0
0
0
0
0
0
0
0
0
0
0
0
0
0
0
0
0
0
0
0
0
0
0
0
0
0
0
0
0
0
0
0
0
0
0
0
0
0
0
0
0
0
0
0
0
0
0
0
0
0
0
0
0
0
0
0
0
0
0
0
0
0
0
0
0
0
0
0
0
0
0
0
0
0
0
0
0
0
0
0
0
0
0
0
0
0
0
0
0
0
0
0
0
0
0
0
0
0
0
0
0
0
0
0
0
0
0
0
0
0
0
0
0
0
0
0
0
0
0
0
0
0
0
0
0
0
0
0
0
0
0
0
0
0
0
0
0
0
0
0
0
0
0
0
0
0
0
0
0
0
0
0
0
0
0
0
0
0
0
0
0
0
0
0
0
0
0
0
0
0
0
0
0
0
0
0
0
0
0
0
0
0
0
0
0
0
0
0
0
0
0
0
0
0
0
0
0
0
0
0
0
0
0
0
0
0
0
0
0
0
0
0
0
0
0
0
0
0
0
0
0
0
0
0
0
0
0
0
0
0
0
0
0
0
0
0
0
0
0
0
0
0
0
0
0
0
0
0
0
0
0
0
0
0
0
0
0
0
0
0
0
0
0
0
0
0
0
0
0
0
0
0
0
0
0
0
0
0
0
0
0
0
0
0
0
0
0
0
0
0
0
0
0
0
0
0
0
0
0
0
0
0
0
0
0
0
0
0
0
0
0
0
0
0
0
0
0
0
0
0
0
0
0
0
0
0
0
0
0
0
0
0
0
0
0
0
0
0
0
0
0
0
0
0
0
0
0
0
0
0
0
0
0
0
0
0
0
0
0
0
0
0
0
0
0
0
0
0
0
0
0
0
0
0
0
0
0
0
0
0
0
0
0
0
0
0
0
0
0
0
0
0
0
0
0
0
0
0
0
0
0
0
0
0
0
0
0
0
0
0
0
0
0
0
0
0
0
0
0
0
0
0
0
0
0
0
0
0
0
0
0
0
0
0
0
0
0
0
0
0
0
0
0
0
0
0
0
0
0
0
0
0
0
0
0
0
0
0
0
0
0
0
0
0
0
0
0
0
0
0
0
0
0
0
0
0
0
0
0
0
0
0
0
0
0
0
0
0
0
0
0
0
0
0
0
0
0
0
0
0
0
0
0
0
0
0
0
0
0
0
0
0
0
0
0
0
0
0
0
0
0
0
0
0
0
0
0
0
0
0
0
0
0
0
0
0
0
0
0
0
0
0
0
0
0
0
0
0
0
0
0
0
0
0
0
0
0
0
0
0
0
0
0
0
0
0
0
0
0
0
0
0
0
0
0
0
0
0
0
0
0
0
0
0
0
0
0
0
0
0
0
0
0
0
0
0
0
0
0
0
0
0
0
0
0
0
0
0
0
0
0
0
0
0
0
0
0
0
0
0
0
0
0
0
0
0
0
0
0
0
0
0
0
0
0
0
0
0
0
0
0
0
0
0
0
0
0
0
0
0
0
0
0
0
0
0
0
0
0
0
0
0
0
0
0
0
0
0
0
0
0
0
0
0
0
0
0
0
0
0
0
0
0
0
0
0
0
0
0
0
0
0
0
0
0
0
0
0
0
0
0
0
0
0
0
0
0
0
0
0
0
0
0
0
0
0
0
0
0
0
0
0
0
0
0
0
0
0
0
0
0
0
0
0
0
0
0
0
0
0
0
0
0
0
0
0
0
0
0
0
0
0
0
0
0
0
0
0
0
0
0
0
0
0
0
0
0
0
0
0
0
0
0
0
0
0
0
0
0
0
0
0
0
0
0
0
0
0
0
0
0
0
0
0
0
0
0
0
0
0
0
0
0
0
0
0
0
0
0
0
0
0
0
0
0
0
0
0
0
0
0
0
0
0
0
0
0
0
0
0
0
0
0
0
0
0
0
0
0
0
0
0
0
0
0
0
0
0
0
0
0
0
0
0
0
0
0
0
0
0
0
0
0
0
0
0
0
0
0
0
0
0
0
0
0
0
0
0
0
0
0
0
0
0
0
0
0
0
0
0
0
0
0
0
0
0
0
0
0
0
0
0
0
0
0
0
0
0
0
0
0
0
0
0
0
0
0
0
0
0
0
0
0
0
0
0
0
0
0
0
0
0
0
0
0
0
0
0
0
0
0
0
0
0
0
0
0
0
0
0
0
0
0
0
0
0
0
0
0
0
0
0
0
0
0
0
0
0
0
0
0
0
0
0
0
0
0
0
0
0
0
0
0
0
0
0
0
0
0
0
0
0
0
0
0
0
0
0
0
0
0
0
0
0
0
0
0
0
0
0
0
0
0
0
0
0
0
0
0
0
0
0
0
0
0
0
0
0
0
0
0
0
0
0
0
0
0
0
0
0
0
0
0
0
0
0
0
0
0
0
0
0
0
0
0
0
0
0
0
0
0
0
0
0
0
0
0
0
0
0
0
0
0
0
0
0
0
0
0
0
0
0
0
0
0
0
0
0
0
0
0
0
0
0
0
0
0
0
0
0
0
0
0
0
0
0
0
0
0
0
0
0
0
0
0
0
0
0
0
0
0
0
0
0
0
0
0
0
0
0
0
0
0
0
0
0
0
0
0
0
0
0
0
0
0
0
0
0
0
0
0
0
0
0
0
0
0
0
0
0
0
0
0
0
0
0
0
0
0
0
0
0
0
0
0
0
0
0
0
0
0
0
0
0
0
0
0
0
0
0
0
0
0
0
0
0
0
0
0
0
0
0
0
0
0
0
0
0
0
0
0
0
0
0
0
0
0
0
0
0
0
0
0
0
0
0
0
0
0
0
0
0
0
0
0
0
0
0
0
0
0
0
0
0
0
0
0
0
0
0
0
0
0
0
0
0
0
0
0
0
0
0
0
0
0
0
0
0
0
0
0
0
0
0
0
0
0
0
0
0
0
0
0
0
0
0
0
0
0
0
0
0
0
0
0
0
0
0
0
0
0
0
0
0
0
0
0
0
0
0
0
0
0
0
0
0
0
0
0
0
0
0
0
0
0
0
0
0
0
0
0
0
0
0
0
0
0
0
0
0
0
0
0
0
0
0
0
0
0
0
0
0
0
0
0
0
0
0
0
0
0
0
0
0
0
0
0
0
0
0
0
0
0
0
0
0
0
0
0
0
0
0
0
0
0
0
0
0
0
0
0
0
0
0
0
0
0
0
0
0
0
0
0
0
0
0
0
0
0
0
0
0
0
0
0
0
0
0
0
0
0
0
0
0
0
0
0
0
0
0
0
0
0
0
0
0
0
0
0
0
0
0
0
0
0
0
0
0
0
0
0
0
0
0
0
0
0
0
0
0
0
0
0
0
0
0
0
0
0
0
0
0
0
0
0
0
0
0
0
0
0
0
0
0
0
0
0
0
0
0
0
0
0
0
0
0
0
0
0
0
0
0
0
0
0
0
0
0
0
0
0
0
0
0
0
0
0
0
0
0
0
0
0
0
0
0
0
0
0
0
0
0
0
0
0
0
0
0
0
0
0
0
0
0
0
0
0
0
0
0
0
0
0
0
0
0
0
0
0
0
0
0
0
0
0
0
0
0
0
0
0
0
0
0
0
0
0
0
0
0
0
0
0
0
0
0
0
0
0
0
0
0
0
0
0
0
0
0
0
0
0
0
0
0
0
0
0
0
0
0
0
0
0
0
0
0
0
0
0
0
0
0
0
0
0
0
0
0
0
0
0
0
0
0
0
0
0
0
0
0
0
0
0
0
0
0
0
0
0
0
0
0
0
0
0
0
0
0
0
0
0
0
0
0
0
0
0
0
0
0
0
0
0
0
0
0
0
0
0
0
0
0
0
0
0
0
0
0
0
0
0
0
0
0
0
0
0
0
0
0
0
0
0
0
0
0
0
0
0
0
0
0
0
0
0
0
0
0
0
0
0
0
0
0
0
0
0
0
0
0
0
0
0
0
0
0
0
0
0
0
0
0
0
0
0
0
0
0
0
0
0
0
0
0
0
0
0
0
0
0
0
0
0
0
0
0
0
0
0
0
0
0
0
0
0
0
0
0
0
0
0
0
0
0
0
0
0
0
0
0
0
0
0
0
0
0
0
0
0
0
0
0
0
0
0
0
0
0
0
0
0
0
0
0
0
0
0
0
0
0
0
0
0
0
0
0
0
0
0
0
0
0
0
0
0
0
0
0
0
0
0
0
0
0
0
0
0
0
0
0
0
0
0
0
0
0
0
0
0
0
0
0
0
0
0
0
0
0
0
0
0
0
0
0
0
0
0
0
0
0
0
0
0
0
0
0
0
0
0
0
0
0
0
0
0
0
0
0
0
0
0
0
0
0
0
0
0
0
0
0
0
0
0
0
0
0
0
0
0
0
0
0
0
0
0
0
0
0
0
0
0
0
0
0
0
0
0
0
0
0
0
0
0
0
0
0
0
0
0
0
0
0
0
0
0
0
0
0
0
0
0
0
0
0
0
0
0
0
0
0
0
0
0
0
0
0
0
0
0
0
0
0
0
0
0
0
0
0
0
0
0
0
0
0
0
0
0
0
0
0
0
0
0
0
0
0
0
0
0
0
0
0
0
0
0
0
0
0
0
0
0
0
0
0
0
0
0
0
0
0
0
0
0
0
0
0
0
0
0
0
0
0
0
0
0
0
0
0
0
0
0
0
0
0
0
0
0
0
0
0
0
0
0
0
0
0
0
0
0
0
0
0
0
0
0
0
0
0
0
0
0
0
0
0
0
0
0
0
0
0
0
0
0
0
0
0
0
0
0
0
0
0
0
0
0
0
0
0
0
0
0
0
0
0
0
0
0
0
0
0
0
0
0
0
0
0
0
0
0
0
0
0
0
0
0
0
0
0
0
0
0
0
0
0
0
0
0
0
0
0
0
0
0
0
0
0
0
0
0
0
0
0
0
0
0
0
0
0
0
0
0
0
0
0
0
0
0
0
0
0
0
0
0
0
0
0
0
0
0
0
0
0
0
0
0
0
0
0
0
0
0
0
0
0
0
0
0
0
0
0
0
0
0
0
0
0
0
0
0
0
0
0
0
0
0
0
0
0
0
0
0
0
0
0
0
0
0
0
0
0
0
0
0
0
0
0
0
0
0
0
0
0
0
0
0
0
0
0
0
0
0
0
0
0
0
0
0
0
0
0
0
0
0
0
0
0
0
0
0
0
0
0
0
0
0
0
0
0
0
0
0
0
0
0
0
0
0
0
0
0
0
0
0
0
0
0
0
0
0
0
0
0
0
0
0
0
0
0
0
0
0
0
0
0
0
0
0
0
0
0
0
0
0
0
0
0
0
0
0
0
0
0
0
0
0
0
0
0
0
0
0
0
0
0
0
0
0
0
0
0
0
0
0
0
0
0
0
0
0
0
0
0
0
0
0
0
0
0
0
0
0
0
0
0
0
0
0
0
0
0
0
0
0
0
0
0
0
0
0
0
0
0
0
0
0
0
0
0
0
0
0
0
0
0
0
0
0
0
0
0
0
0
0
0
0
0
0
0
0
0
0
0
0
0
0
0
0
0
0
0
0
0
0
0
0
0
0
0
0
0
0
0
0
0
0
0
0
0
0
0
0
0
0
0
0
0
0
0
0
0
0
0
0
0
0
0
0
0
0
0
0
0
0
0
0
0
0
0
0
0
0
0
0
0
0
0
0
0
0
0
0
0
0
0
0
0
0
0
0
0
0
0
0
0
0
0
0
0
0
0
0
0
0
0
0
0
0
0
0
0
0
0
0
0
0
0
0
0
0
0
0
0
0
0
0
0
0
0
0
0
0
0
0
0
0
0
0
0
0
0
0
0
0
0
0
0
0
0
0
0
0
0
0
0
0
0
0
0
0
0
0
0
0
0
0
0
0
0
0
0
0
0
0
0
0
0
0
0
0
0
0
0
0
0
0
0
0
0
0
0
0
0
0
0
0
0
0
0
0
0
0
0
0
0
0
0
0
0
0
0
0
0
0
0
0
0
0
0
0
0
0
0
0
0
0
0
0
0
0
0
0
0
0
0
0
0
0
0
0
0
0
0
0
0
0
0
0
0
0
0
0
0
0
0
0
0
0
0
0
0
0
0
0
0
0
0
0
0
0
0
0
0
0
0
0
0
0
0
0
0
0
0
0
0
0
0
0
0
0
0
0
0
0
0
0
0
0
0
0
0
0
0
0
0
0
0
0
0
0
0
0
0
0
0
0
0
0
0
0
0
0
0
0
0
0
0
0
0
0
0
0
0
0
0
0
0
0
0
0
0
0
0
0
0
0
0
0
0
0
0
0
0
0
0
0
0
0
0
0
0
0
0
0
0
0
0
0
0
0
0
0
1.37877e+12
1.73701e+12
2.04128e+12
2.27969e+12
2.45476e+12
2.57333e+12
2.64605e+12
2.68844e+12
2.71242e+12
2.72425e+12
2.72725e+12
2.72247e+12
2.7093e+12
2.68779e+12
2.66118e+12
2.62928e+12
2.61798e+12
2.62843e+12
2.5841e+12
0
0
0
0
0
0
0
0
0
0
0
0
0
0
0
0
0
0
0
0
0
1.62916e+12
2.50681e+12
3.434e+12
4.30689e+12
5.04128e+12
5.60821e+12
6.0351e+12
6.33738e+12
6.521e+12
6.61946e+12
6.67114e+12
6.69744e+12
6.7022e+12
6.67938e+12
6.62895e+12
6.55766e+12
6.47719e+12
6.39191e+12
6.3589e+12
6.3782e+12
6.2808e+12
0
0
0
0
0
0
0
0
0
0
0
0
0
0
0
0
0
0
0
0
2.26762e+12
4.03492e+12
6.14184e+12
8.33866e+12
1.03882e+13
1.20978e+13
1.34323e+13
1.44638e+13
1.52005e+13
1.56297e+13
1.5829e+13
1.59178e+13
1.59621e+13
1.59606e+13
1.58791e+13
1.5726e+13
1.55296e+13
1.53166e+13
1.50995e+13
1.50058e+13
1.50337e+13
1.48317e+13
0
0
0
0
0
0
0
0
0
0
0
0
0
0
0
0
0
0
0
2.53092e+12
5.50861e+12
9.6281e+12
1.44693e+13
1.9479e+13
2.41716e+13
2.81406e+13
3.12708e+13
3.36836e+13
3.53778e+13
3.63589e+13
3.68368e+13
3.70417e+13
3.70903e+13
3.69743e+13
3.6679e+13
3.62514e+13
3.57232e+13
3.51662e+13
3.46614e+13
3.4443e+13
3.44847e+13
3.40887e+13
0
0
0
0
0
0
0
0
0
0
0
0
0
0
0
0
0
0
2.05378e+12
6.19879e+12
1.30456e+13
2.22875e+13
3.30277e+13
4.40858e+13
5.44343e+13
6.35e+13
7.09331e+13
7.64852e+13
8.01686e+13
8.22966e+13
8.33324e+13
8.36997e+13
8.3607e+13
8.31347e+13
8.23643e+13
8.13401e+13
8.00386e+13
7.86897e+13
7.75963e+13
7.71104e+13
7.71413e+13
7.6361e+13
0
0
0
0
0
0
0
0
0
0
0
0
0
0
0
0
0
0
5.14704e+12
1.46815e+13
2.99846e+13
5.02013e+13
7.36908e+13
9.8014e+13
1.20685e+14
1.40493e+14
1.56646e+14
1.68444e+14
1.76178e+14
1.80653e+14
1.8274e+14
1.83287e+14
1.8287e+14
1.81812e+14
1.80196e+14
1.77936e+14
1.74998e+14
1.71991e+14
1.69667e+14
1.68515e+14
1.68257e+14
1.66697e+14
0
0
0
0
0
0
0
0
0
0
0
0
0
0
0
0
0
2.51504e+12
1.24233e+13
3.37776e+13
6.72475e+13
1.10884e+14
1.61328e+14
2.13339e+14
2.6154e+14
3.03092e+14
3.36285e+14
3.60251e+14
3.7608e+14
3.85242e+14
3.89374e+14
3.90433e+14
3.89742e+14
3.87909e+14
3.84783e+14
3.80051e+14
3.73878e+14
3.67606e+14
3.62525e+14
3.59434e+14
3.57832e+14
3.5481e+14
0
0
0
0
0
0
0
0
0
0
0
0
0
0
0
0
0
6.28331e+12
2.88915e+13
7.52359e+13
1.46433e+14
2.38766e+14
3.44666e+14
4.52536e+14
5.51765e+14
6.3655e+14
7.03443e+14
7.51493e+14
7.83374e+14
8.01951e+14
8.10564e+14
8.13212e+14
8.1276e+14
8.09942e+14
8.03924e+14
7.94177e+14
7.81511e+14
7.68634e+14
7.57761e+14
7.50041e+14
7.44562e+14
7.38054e+14
0
0
0
0
0
0
0
0
0
0
0
0
0
0
0
0
0
1.50828e+13
6.52341e+13
1.6325e+14
3.11118e+14
5.01794e+14
7.18571e+14
9.37023e+14
1.13684e+15
1.30679e+15
1.43977e+15
1.53485e+15
1.59838e+15
1.63597e+15
1.65425e+15
1.66089e+15
1.66117e+15
1.65566e+15
1.64225e+15
1.62112e+15
1.59571e+15
1.57007e+15
1.54653e+15
1.52733e+15
1.51212e+15
1.49931e+15
0
0
0
0
0
0
0
0
0
0
0
0
0
0
0
0
1.34599e+12
3.419e+13
1.4154e+14
3.43877e+14
6.45208e+14
1.03125e+15
1.46623e+15
1.9011e+15
2.29685e+15
2.63108e+15
2.88956e+15
3.07261e+15
3.19465e+15
3.26711e+15
3.30332e+15
3.31753e+15
3.31813e+15
3.3049e+15
3.27439e+15
3.2292e+15
3.17697e+15
3.12577e+15
3.07924e+15
3.03929e+15
3.00863e+15
2.98799e+15
0
0
0
0
0
0
0
0
0
0
0
0
0
0
0
0
3.03808e+12
7.39411e+13
2.97255e+14
7.07533e+14
1.31346e+15
2.08423e+15
2.9449e+15
3.79989e+15
4.57328e+15
5.21957e+15
5.71318e+15
6.05894e+15
6.28565e+15
6.41835e+15
6.48537e+15
6.51264e+15
6.51204e+15
6.48153e+15
6.41724e+15
6.32584e+15
6.22242e+15
6.12038e+15
6.0278e+15
5.94857e+15
5.88845e+15
5.85134e+15
0
0
0
0
0
0
0
0
0
0
0
0
0
0
0
0
8.10896e+12
1.55887e+14
6.08354e+14
1.42748e+15
2.62896e+15
4.14504e+15
5.82457e+15
7.48551e+15
8.97861e+15
1.02125e+16
1.11459e+16
1.17929e+16
1.22048e+16
1.24383e+16
1.25548e+16
1.26017e+16
1.25954e+16
1.253e+16
1.24017e+16
1.2225e+16
1.20268e+16
1.1828e+16
1.16441e+16
1.14875e+16
1.13704e+16
1.1305e+16
0
0
0
0
0
0
0
0
0
0
0
0
0
0
0
0
2.29988e+13
3.26889e+14
1.22718e+15
2.8388e+15
5.1857e+15
8.1219e+15
1.13526e+16
1.45362e+16
1.73799e+16
1.97058e+16
2.14508e+16
2.26451e+16
2.33815e+16
2.37837e+16
2.39788e+16
2.40526e+16
2.40283e+16
2.38932e+16
2.36445e+16
2.33111e+16
2.29378e+16
2.25584e+16
2.22012e+16
2.18968e+16
2.16725e+16
2.1555e+16
0
0
0
0
0
0
0
0
0
0
0
0
0
0
0
3.58836e+12
6.26394e+13
6.84562e+14
2.45526e+15
5.58635e+15
1.01059e+16
1.57104e+16
2.18396e+16
2.78538e+16
3.31888e+16
3.75105e+16
4.07228e+16
4.28869e+16
4.41842e+16
4.48712e+16
4.51957e+16
4.53085e+16
4.52416e+16
4.49719e+16
4.4503e+16
4.38875e+16
4.31951e+16
4.24802e+16
4.17985e+16
4.1215e+16
4.07898e+16
4.05733e+16
0
0
0
0
0
0
0
0
0
0
0
0
0
0
0
8.05356e+12
1.61867e+14
1.42625e+15
4.86877e+15
1.08695e+16
1.94377e+16
2.99681e+16
4.14252e+16
5.26095e+16
6.24552e+16
7.03665e+16
7.61919e+16
8.006e+16
8.23378e+16
8.35261e+16
8.40801e+16
8.42589e+16
8.41063e+16
8.35866e+16
8.27206e+16
8.1598e+16
8.03205e+16
7.89821e+16
7.7697e+16
7.65964e+16
7.57984e+16
7.53957e+16
0
0
0
0
0
0
0
0
0
0
0
0
0
0
0
1.79145e+13
3.98847e+14
2.94914e+15
9.56671e+15
2.09064e+16
3.68903e+16
5.63708e+16
7.74503e+16
9.78709e+16
1.15718e+17
1.29978e+17
1.40383e+17
1.47219e+17
1.51231e+17
1.53337e+17
1.54315e+17
1.54612e+17
1.5431e+17
1.5336e+17
1.51812e+17
1.49791e+17
1.4745e+17
1.44973e+17
1.42594e+17
1.40561e+17
1.3908e+17
1.38325e+17
0
0
0
0
0
0
0
0
0
0
0
0
0
0
0
3.94315e+13
9.47329e+14
6.04841e+15
1.8613e+16
3.97131e+16
6.90322e+16
1.04467e+17
1.42493e+17
1.78982e+17
2.10744e+17
2.36077e+17
2.54437e+17
2.66471e+17
2.73635e+17
2.77492e+17
2.79302e+17
2.79861e+17
2.79369e+17
2.77748e+17
2.75068e+17
2.71475e+17
2.67224e+17
2.62698e+17
2.58374e+17
2.54696e+17
2.51976e+17
2.50559e+17
0
0
0
0
0
0
0
0
0
0
0
0
0
0
7.47444e+12
8.57616e+13
2.1545e+15
1.22049e+16
3.56754e+16
7.42675e+16
1.27186e+17
1.90552e+17
2.5785e+17
3.21964e+17
3.77711e+17
4.22088e+17
4.54189e+17
4.75378e+17
4.88211e+17
4.95242e+17
4.98602e+17
4.99746e+17
4.99106e+17
4.96511e+17
4.91993e+17
4.85712e+17
4.78135e+17
4.70035e+17
4.62331e+17
4.55789e+17
4.50864e+17
4.48238e+17
0
0
0
0
0
0
0
0
0
0
0
0
0
0
1.72926e+13
1.83485e+14
4.69727e+15
2.41491e+16
6.72517e+16
1.36697e+17
2.30795e+17
3.42241e+17
4.59482e+17
5.70828e+17
6.67479e+17
7.44205e+17
7.99991e+17
8.37265e+17
8.59955e+17
8.72348e+17
8.78393e+17
8.80772e+17
8.80257e+17
8.76337e+17
8.68862e+17
8.58106e+17
8.44946e+17
8.30798e+17
8.17331e+17
8.05835e+17
7.97054e+17
7.92305e+17
0
0
0
0
0
0
0
0
0
0
0
0
0
0
3.92195e+13
3.8607e+14
9.88789e+15
4.69201e+16
1.24923e+17
2.48183e+17
4.13202e+17
6.06528e+17
8.08465e+17
9.99805e+17
1.16536e+18
1.29671e+18
1.39297e+18
1.45773e+18
1.49691e+18
1.51815e+18
1.52883e+18
1.53366e+18
1.53375e+18
1.52793e+18
1.51564e+18
1.4975e+18
1.47518e+18
1.4511e+18
1.42804e+18
1.40821e+18
1.39299e+18
1.38477e+18
0
0
0
0
0
0
0
0
0
0
0
0
0
5.43837e+12
8.72712e+13
8.00052e+14
2.01491e+16
8.951e+16
2.28862e+17
4.44962e+17
7.30852e+17
1.06281e+18
1.40761e+18
1.73317e+18
2.0142e+18
2.23733e+18
2.40114e+18
2.51097e+18
2.5771e+18
2.61313e+18
2.63182e+18
2.64087e+18
2.64191e+18
2.63306e+18
2.61284e+18
2.58264e+18
2.54556e+18
2.50554e+18
2.46698e+18
2.43365e+18
2.40825e+18
2.39472e+18
0
0
0
0
0
0
0
0
0
0
0
0
0
1.31043e+13
1.90558e+14
1.61874e+15
3.96847e+16
1.67243e+17
4.12882e+17
7.87314e+17
1.27762e+18
1.8428e+18
2.4268e+18
2.97621e+18
3.44959e+18
3.82462e+18
4.09811e+18
4.2802e+18
4.39014e+18
4.45103e+18
4.48316e+18
4.49872e+18
4.50069e+18
4.48643e+18
4.45294e+18
4.40293e+18
4.34215e+18
4.27687e+18
4.21388e+18
4.15972e+18
4.11912e+18
4.09798e+18
0
0
0
0
0
0
0
0
0
0
0
0
0
3.05448e+13
4.02611e+14
3.17002e+15
7.55156e+16
3.05483e+17
7.32396e+17
1.37413e+18
2.20719e+18
3.16108e+18
4.14262e+18
5.06274e+18
5.85215e+18
6.47357e+18
6.92284e+18
7.22044e+18
7.40091e+18
7.50196e+18
7.55517e+18
7.58053e+18
7.5833e+18
7.55904e+18
7.50299e+18
7.42067e+18
7.32223e+18
7.21741e+18
7.11701e+18
7.03187e+18
6.96892e+18
6.93668e+18
0
0
0
0
0
0
0
0
0
0
0
0
0
6.85559e+13
8.28919e+14
8.17248e+15
1.41404e+17
5.45686e+17
1.27844e+18
2.36687e+18
3.76701e+18
5.36124e+18
6.99669e+18
8.52227e+18
9.82232e+18
1.08387e+19
1.15689e+19
1.20506e+19
1.2342e+19
1.25045e+19
1.25893e+19
1.26294e+19
1.26323e+19
1.25897e+19
1.2496e+19
1.23619e+19
1.22041e+19
1.2038e+19
1.18812e+19
1.17498e+19
1.16524e+19
1.16023e+19
0
0
0
0
0
0
0
0
0
0
0
0
7.24394e+12
1.48301e+14
1.64788e+15
2.1951e+16
2.62672e+17
9.58309e+17
2.19889e+18
4.02073e+18
6.34361e+18
8.97675e+18
1.1668e+19
1.41643e+19
1.62806e+19
1.79288e+19
1.91079e+19
1.98809e+19
2.03445e+19
2.06001e+19
2.07325e+19
2.0794e+19
2.07953e+19
2.07214e+19
2.05675e+19
2.03509e+19
2.00989e+19
1.98376e+19
1.95953e+19
1.93926e+19
1.92396e+19
1.91603e+19
0
0
0
0
0
0
0
0
0
0
0
0
1.69761e+13
3.0856e+14
3.20686e+15
5.28467e+16
4.82534e+17
1.6624e+18
3.73284e+18
6.73814e+18
1.05402e+19
1.48289e+19
1.91887e+19
2.32139e+19
2.66189e+19
2.92671e+19
3.11553e+19
3.23852e+19
3.31157e+19
3.35146e+19
3.37192e+19
3.38113e+19
3.38076e+19
3.36852e+19
3.34388e+19
3.30919e+19
3.26904e+19
3.22807e+19
3.19042e+19
3.15875e+19
3.13463e+19
3.12225e+19
0
0
0
0
0
0
0
0
0
0
0
0
3.81691e+13
6.24818e+14
6.1765e+15
1.17375e+17
8.76192e+17
2.85299e+18
6.261e+18
1.11498e+19
1.72856e+19
2.41602e+19
3.11081e+19
3.75023e+19
4.29045e+19
4.71006e+19
5.00862e+19
5.20246e+19
5.31717e+19
5.37959e+19
5.41125e+19
5.42501e+19
5.42403e+19
5.40513e+19
5.36695e+19
5.31241e+19
5.24926e+19
5.18513e+19
5.12585e+19
5.07552e+19
5.03732e+19
5.01818e+19
0
0
0
0
0
0
0
0
0
0
0
0
8.22606e+13
1.2531e+15
1.17164e+16
2.45913e+17
1.57285e+18
4.84889e+18
1.03899e+19
1.82392e+19
2.79952e+19
3.88368e+19
4.97296e+19
5.97208e+19
6.81468e+19
7.46852e+19
7.93367e+19
8.23601e+19
8.41548e+19
8.5132e+19
8.56213e+19
8.58284e+19
8.58135e+19
8.55341e+19
8.49527e+19
8.41122e+19
8.3135e+19
8.21351e+19
8.11981e+19
8.03986e+19
7.97958e+19
7.94985e+19
0
0
0
0
0
0
0
0
0
0
0
6.77568e+12
1.74508e+14
2.4775e+15
2.17498e+16
4.91725e+17
2.78558e+18
8.1522e+18
1.7048e+19
2.94749e+19
4.47467e+19
6.15699e+19
7.83621e+19
9.36891e+19
1.0658e+20
1.1658e+20
1.23707e+20
1.28364e+20
1.31153e+20
1.32677e+20
1.33438e+20
1.33764e+20
1.33758e+20
1.33358e+20
1.32485e+20
1.31217e+20
1.29731e+20
1.28191e+20
1.26736e+20
1.25495e+20
1.24559e+20
1.24095e+20
0
0
0
0
0
0
0
0
0
0
0
1.56797e+13
3.67796e+14
4.79409e+15
3.96798e+16
9.45898e+17
4.85818e+18
1.35373e+19
2.76233e+19
4.70083e+19
7.05494e+19
9.62353e+19
1.21664e+20
1.44725e+20
1.64053e+20
1.79037e+20
1.89739e+20
1.9677e+20
2.01016e+20
2.03351e+20
2.04528e+20
2.05055e+20
2.05084e+20
2.04511e+20
2.03214e+20
2.01327e+20
1.99092e+20
1.96766e+20
1.94571e+20
1.92703e+20
1.91285e+20
1.90562e+20
0
0
0
0
0
0
0
0
0
0
0
3.63359e+13
7.54938e+14
9.12071e+15
7.14072e+16
1.75887e+18
8.32735e+18
2.21524e+19
4.41043e+19
7.38573e+19
1.09548e+20
1.48068e+20
1.85839e+20
2.19848e+20
2.48214e+20
2.70148e+20
2.85815e+20
2.96136e+20
3.02391e+20
3.05854e+20
3.07628e+20
3.08462e+20
3.08552e+20
3.07746e+20
3.05886e+20
3.03158e+20
2.99895e+20
2.96498e+20
2.93314e+20
2.9061e+20
2.88538e+20
2.87449e+20
0
0
0
0
0
0
0
0
0
0
0
8.11945e+13
1.52285e+15
1.71571e+16
1.2662e+17
3.17544e+18
1.4024e+19
3.56912e+19
6.933e+19
1.14211e+20
1.67323e+20
2.23931e+20
2.78864e+20
3.27931e+20
3.6858e+20
3.99832e+20
4.22072e+20
4.36687e+20
4.45523e+20
4.50427e+20
4.52964e+20
4.54168e+20
4.5429e+20
4.53142e+20
4.50533e+20
4.46694e+20
4.4209e+20
4.37321e+20
4.32878e+20
4.2911e+20
4.26207e+20
4.24642e+20
0
0
0
0
0
0
0
0
0
0
5.96965e+12
1.76727e+14
3.03748e+15
3.1502e+16
2.19423e+17
5.56003e+18
2.31367e+19
5.64674e+19
1.07016e+20
1.73325e+20
2.50606e+20
3.3183e+20
4.09744e+20
4.78652e+20
5.35183e+20
5.78258e+20
6.08696e+20
6.28584e+20
6.40551e+20
6.47194e+20
6.50642e+20
6.5228e+20
6.52448e+20
6.50915e+20
6.47431e+20
6.42245e+20
6.35997e+20
6.29527e+20
6.23504e+20
6.18401e+20
6.14456e+20
6.12288e+20
0
0
0
0
0
0
0
0
0
0
1.42327e+13
3.80743e+14
5.83426e+15
5.65057e+16
4.56941e+17
9.50551e+18
3.72813e+19
8.75238e+19
1.61849e+20
2.57529e+20
3.67183e+20
4.80703e+20
5.88183e+20
6.82068e+20
7.58125e+20
8.15406e+20
8.55494e+20
8.8145e+20
8.96902e+20
9.05393e+20
9.09767e+20
9.118e+20
9.11917e+20
9.0986e+20
9.05331e+20
8.98596e+20
8.90468e+20
8.81995e+20
8.74059e+20
8.67316e+20
8.62069e+20
8.59141e+20
0
0
0
0
0
0
0
0
0
0
3.30472e+13
7.6176e+14
1.06537e+16
9.80305e+16
1.34877e+18
1.61177e+19
5.82841e+19
1.32182e+20
2.38837e+20
3.73273e+20
5.24421e+20
6.78215e+20
8.21534e+20
9.44783e+20
1.04312e+21
1.11619e+21
1.16673e+21
1.19905e+21
1.21799e+21
1.22826e+21
1.23351e+21
1.23582e+21
1.23565e+21
1.23269e+21
1.22672e+21
1.21807e+21
1.20776e+21
1.19699e+21
1.1869e+21
1.17832e+21
1.17161e+21
1.16784e+21
0
0
0
0
0
0
0
0
0
0
6.90128e+13
1.44013e+15
1.88035e+16
1.6055e+17
3.18157e+18
2.67115e+19
8.88978e+19
1.9455e+20
3.43307e+20
5.26596e+20
7.28372e+20
9.29867e+20
1.11444e+21
1.27056e+21
1.39321e+21
1.48302e+21
1.54422e+21
1.58265e+21
1.60468e+21
1.61647e+21
1.6225e+21
1.62498e+21
1.62431e+21
1.6202e+21
1.61256e+21
1.6018e+21
1.58912e+21
1.57591e+21
1.56357e+21
1.55316e+21
1.54508e+21
1.5406e+21
0
0
0
0
0
0
0
0
0
0
1.38676e+14
2.65849e+15
3.16187e+16
2.52771e+17
6.45859e+18
4.29204e+19
1.32044e+20
2.78795e+20
4.80272e+20
7.22403e+20
9.82537e+20
1.23622e+21
1.46316e+21
1.65088e+21
1.79548e+21
1.89948e+21
1.96896e+21
2.0117e+21
2.03591e+21
2.04885e+21
2.05545e+21
2.05775e+21
2.05613e+21
2.05034e+21
2.04052e+21
2.02715e+21
2.0117e+21
1.99575e+21
1.98101e+21
1.96871e+21
1.95928e+21
1.9542e+21
0
0
0
0
0
0
0
0
0
9.81712e+12
2.69137e+14
4.64027e+15
5.1114e+16
3.89695e+17
1.19657e+19
6.70424e+19
1.91374e+20
3.8903e+20
6.5222e+20
9.5939e+20
1.28107e+21
1.58825e+21
1.85829e+21
2.07797e+21
2.2438e+21
2.36036e+21
2.43638e+21
2.482e+21
2.50727e+21
2.52042e+21
2.52672e+21
2.52828e+21
2.5256e+21
2.51846e+21
2.50705e+21
2.49198e+21
2.4748e+21
2.45717e+21
2.44088e+21
2.42722e+21
2.41671e+21
2.41102e+21
0
0
0
0
0
0
0
0
0
1.91002e+13
4.80657e+14
7.66742e+15
7.94179e+16
5.8054e+17
2.06625e+19
1.01203e+20
2.68661e+20
5.25181e+20
8.57093e+20
1.23532e+21
1.62254e+21
1.98221e+21
2.28732e+21
2.52665e+21
2.70129e+21
2.82e+21
2.89515e+21
2.93944e+21
2.96368e+21
2.97599e+21
2.98132e+21
2.98172e+21
2.97782e+21
2.96943e+21
2.95673e+21
2.94042e+21
2.92203e+21
2.90327e+21
2.88586e+21
2.8711e+21
2.85959e+21
2.85336e+21
0
0
0
0
0
0
0
0
0
3.25929e+13
7.77148e+14
1.15232e+16
1.14956e+17
8.12227e+17
3.2992e+19
1.46563e+20
3.65666e+20
6.89719e+20
1.09692e+21
1.54616e+21
1.98837e+21
2.38272e+21
2.70734e+21
2.95634e+21
3.13357e+21
3.25002e+21
3.32057e+21
3.36034e+21
3.38123e+21
3.39106e+21
3.39428e+21
3.39287e+21
3.38744e+21
3.37771e+21
3.36385e+21
3.34669e+21
3.32765e+21
3.30838e+21
3.29045e+21
3.27517e+21
3.26316e+21
3.25672e+21
0
0
0
0
0
0
0
0
0
5.14018e+13
1.12468e+15
1.59588e+16
1.56822e+17
1.06384e+18
5.03512e+19
2.07295e+20
4.87383e+20
8.83511e+20
1.36126e+21
1.86664e+21
2.34583e+21
2.76163e+21
3.09546e+21
3.34426e+21
3.51542e+21
3.62312e+21
3.68484e+21
3.71705e+21
3.7321e+21
3.73759e+21
3.7376e+21
3.73382e+21
3.72658e+21
3.71555e+21
3.70089e+21
3.68349e+21
3.66448e+21
3.64538e+21
3.62753e+21
3.61224e+21
3.60019e+21
3.59373e+21
0
0
0
0
0
0
0
0
0
7.01635e+13
1.46711e+15
2.09371e+16
2.0434e+17
5.1508e+18
7.7943e+19
2.84601e+20
6.29938e+20
1.09364e+21
1.62775e+21
2.17163e+21
2.67241e+21
3.09619e+21
3.42736e+21
3.66565e+21
3.82239e+21
3.91579e+21
3.96527e+21
3.98771e+21
3.99536e+21
3.99557e+21
3.99191e+21
3.98551e+21
3.97633e+21
3.96404e+21
3.94876e+21
3.93129e+21
3.91256e+21
3.89401e+21
3.87677e+21
3.86192e+21
3.85015e+21
3.84387e+21
0
0
0
0
0
0
0
0
0
9.03275e+13
1.94298e+15
2.74594e+16
2.61603e+17
1.53144e+19
1.20115e+20
3.78753e+20
7.84927e+20
1.30345e+21
1.87603e+21
2.44041e+21
2.9478e+21
3.3665e+21
3.68369e+21
3.90312e+21
4.04023e+21
4.11585e+21
4.1508e+21
4.16214e+21
4.16178e+21
4.15665e+21
4.14979e+21
4.14165e+21
4.13158e+21
4.11914e+21
4.10423e+21
4.08718e+21
4.06873e+21
4.05018e+21
4.03252e+21
4.01684e+21
4.0042e+21
3.99741e+21
0
0
0
0
0
0
0
0
0
1.11571e+14
2.40837e+15
3.30881e+16
3.11486e+17
3.17276e+19
1.7593e+20
4.83726e+20
9.38982e+20
1.49511e+21
2.08798e+21
2.65804e+21
3.15929e+21
3.56206e+21
3.85781e+21
4.05488e+21
4.17258e+21
4.23384e+21
4.25985e+21
4.26691e+21
4.26395e+21
4.25719e+21
4.24761e+21
4.23612e+21
4.2231e+21
4.20749e+21
4.18832e+21
4.16819e+21
4.14856e+21
4.1301e+21
4.11561e+21
4.10494e+21
4.09819e+21
4.09598e+21
0
0
0
0
0
0
0
0
0
1.27168e+14
2.77949e+15
3.90517e+16
3.68116e+17
5.36469e+19
2.41356e+20
5.89611e+20
1.07658e+21
1.65091e+21
2.24928e+21
2.81387e+21
3.29998e+21
3.68275e+21
3.95886e+21
4.14116e+21
4.24983e+21
4.30063e+21
4.31301e+21
4.30771e+21
4.29793e+21
4.28722e+21
4.27708e+21
4.26622e+21
4.25382e+21
4.23941e+21
4.22215e+21
4.20212e+21
4.18178e+21
4.16259e+21
4.14505e+21
4.13072e+21
4.11996e+21
4.11424e+21
0
0
0
0
0
0
0
0
0
1.21452e+14
2.69596e+15
3.95597e+16
3.16447e+18
8.07725e+19
3.08057e+20
6.85777e+20
1.18837e+21
1.76549e+21
2.35783e+21
2.90975e+21
3.37935e+21
3.74741e+21
4.01398e+21
4.19111e+21
4.29085e+21
4.32428e+21
4.32602e+21
4.32248e+21
4.31362e+21
4.30273e+21
4.29152e+21
4.27991e+21
4.2671e+21
4.25227e+21
4.23469e+21
4.21453e+21
4.19375e+21
4.17397e+21
4.15567e+21
4.13969e+21
4.127e+21
4.12022e+21
0
0
0
0
0
0
0
0
0
9.57078e+13
2.31949e+15
3.65746e+16
1.30484e+19
1.14507e+20
3.6745e+20
7.63289e+20
1.27166e+21
1.84403e+21
2.42438e+21
2.96132e+21
3.41967e+21
3.78122e+21
4.04463e+21
4.21738e+21
4.30671e+21
4.33498e+21
4.33666e+21
4.33045e+21
4.3215e+21
4.31126e+21
4.29981e+21
4.28748e+21
4.27396e+21
4.25852e+21
4.24058e+21
4.22041e+21
4.19945e+21
4.17924e+21
4.16063e+21
4.14419e+21
4.13126e+21
4.12475e+21
0
0
0
0
0
0
0
0
0
6.38644e+13
1.80899e+15
3.10702e+16
2.60347e+19
1.50727e+20
4.20356e+20
8.24598e+20
1.33217e+21
1.8963e+21
2.4645e+21
2.99067e+21
3.44189e+21
3.80094e+21
4.06296e+21
4.23234e+21
4.31663e+21
4.34335e+21
4.34539e+21
4.33767e+21
4.32737e+21
4.31693e+21
4.30582e+21
4.29339e+21
4.27948e+21
4.26373e+21
4.24577e+21
4.22582e+21
4.20493e+21
4.18454e+21
4.16584e+21
4.14968e+21
4.13754e+21
4.13184e+21
0
0
0
0
0
0
0
0
0
3.90116e+13
1.28467e+15
2.45589e+16
3.99272e+19
1.86706e+20
4.68311e+20
8.75503e+20
1.37879e+21
1.9339e+21
2.49235e+21
3.01136e+21
3.45848e+21
3.81488e+21
4.07528e+21
4.24296e+21
4.32471e+21
4.35e+21
4.35229e+21
4.34417e+21
4.3328e+21
4.32153e+21
4.31058e+21
4.29865e+21
4.28488e+21
4.26921e+21
4.25154e+21
4.23204e+21
4.2115e+21
4.19127e+21
4.17275e+21
4.15717e+21
4.14601e+21
4.14103e+21
0
0
0
0
0
0
0
0
0
2.22592e+13
9.03401e+14
1.78953e+16
5.34259e+19
2.21232e+20
5.12647e+20
9.2038e+20
1.41799e+21
1.96443e+21
2.51474e+21
3.0278e+21
3.47135e+21
3.8258e+21
4.08454e+21
4.25091e+21
4.3307e+21
4.35479e+21
4.35755e+21
4.34953e+21
4.33754e+21
4.3254e+21
4.31404e+21
4.30256e+21
4.28962e+21
4.27457e+21
4.25745e+21
4.23858e+21
4.21865e+21
4.19887e+21
4.18078e+21
4.16582e+21
4.15544e+21
4.15093e+21
0
0
0
0
0
0
0
0
0
0
6.40352e+14
4.54407e+18
6.99681e+19
2.51487e+20
5.5162e+20
9.60135e+20
1.45187e+21
1.99015e+21
2.5336e+21
3.04269e+21
3.48354e+21
3.83522e+21
4.09165e+21
4.25618e+21
4.33508e+21
4.35943e+21
4.36261e+21
4.35413e+21
4.34101e+21
4.32806e+21
4.31655e+21
4.30544e+21
4.29321e+21
4.27899e+21
4.2627e+21
4.24464e+21
4.22554e+21
4.20655e+21
4.18909e+21
4.17467e+21
4.16481e+21
4.16053e+21
0
0
0
0
0
0
0
0
0
0
5.65049e+14
1.07359e+19
8.7961e+19
2.79422e+20
5.85701e+20
9.95028e+20
1.48299e+21
2.01573e+21
2.55316e+21
3.05633e+21
3.49313e+21
3.84302e+21
4.09843e+21
4.26161e+21
4.33879e+21
4.36289e+21
4.36631e+21
4.35739e+21
4.34368e+21
4.33012e+21
4.31829e+21
4.30734e+21
4.29578e+21
4.28251e+21
4.26723e+21
4.25019e+21
4.23207e+21
4.21395e+21
4.19719e+21
4.18335e+21
4.17382e+21
4.16953e+21
0
0
0
0
0
0
0
0
0
1.69236e+13
6.13996e+14
1.77449e+19
1.07364e+20
3.07945e+20
6.19191e+20
1.02863e+21
1.51183e+21
2.0372e+21
2.56798e+21
3.06661e+21
3.50112e+21
3.8503e+21
4.10522e+21
4.267e+21
4.3424e+21
4.36489e+21
4.36742e+21
4.35877e+21
4.34556e+21
4.33203e+21
4.32002e+21
4.30916e+21
4.29809e+21
4.28567e+21
4.27141e+21
4.25547e+21
4.23844e+21
4.2213e+21
4.20536e+21
4.19208e+21
4.18279e+21
4.17834e+21
0
0
0
0
0
0
0
0
0
2.53727e+13
6.8365e+14
2.51212e+19
1.27039e+20
3.35256e+20
6.4952e+20
1.05691e+21
1.53529e+21
2.05501e+21
2.58028e+21
3.07522e+21
3.50783e+21
3.85572e+21
4.10866e+21
4.2681e+21
4.34754e+21
4.37214e+21
4.37072e+21
4.35989e+21
4.34664e+21
4.33368e+21
4.32201e+21
4.31137e+21
4.30071e+21
4.28905e+21
4.27582e+21
4.26101e+21
4.24511e+21
4.22899e+21
4.21385e+21
4.20108e+21
4.19191e+21
4.18727e+21
0
0
0
0
0
0
0
0
0
4.60089e+13
8.75648e+14
3.21636e+19
1.45735e+20
3.60452e+20
6.75456e+20
1.07987e+21
1.55392e+21
2.06822e+21
2.58912e+21
3.081e+21
3.51144e+21
3.85768e+21
4.10961e+21
4.2693e+21
4.35119e+21
4.37833e+21
4.37594e+21
4.36291e+21
4.34854e+21
4.3357e+21
4.32452e+21
4.31429e+21
4.30406e+21
4.29305e+21
4.28073e+21
4.26702e+21
4.25224e+21
4.23713e+21
4.22281e+21
4.21053e+21
4.20145e+21
4.19672e+21
0
0
0
0
0
0
0
0
0
9.38154e+13
1.20931e+15
3.84011e+19
1.62081e+20
3.81427e+20
6.95894e+20
1.09708e+21
1.56618e+21
2.07553e+21
2.59244e+21
3.08136e+21
3.50951e+21
3.85458e+21
4.10712e+21
4.26878e+21
4.3537e+21
4.3837e+21
4.38206e+21
4.36773e+21
4.35183e+21
4.3384e+21