/*--------------------------------*- C++ -*----------------------------------*\
| =========                 |                                                 |
| \\      /  F ield         | OpenFOAM: The Open Source CFD Toolbox           |
|  \\    /   O peration     | Version:  2412                                  |
|   \\  /    A nd           | Website:  www.openfoam.com                      |
|    \\/     M anipulation  |                                                 |
\*---------------------------------------------------------------------------*/
FoamFile
{
    version     2.0;
    format      ascii;
    arch        "LSB;label=32;scalar=64";
    class       volScalarField;
    location    "0.013";
    object      p;
}
// * * * * * * * * * * * * * * * * * * * * * * * * * * * * * * * * * * * * * //

dimensions      [1 -1 -2 0 0 0 0];

internalField   nonuniform List<scalar> 
8988
(
528.744
528.7
528.746
528.754
528.701
528.678
528.741
528.761
528.735
528.721
528.712
528.722
528.73
528.732
528.731
528.732
528.737
528.74
528.742
528.742
528.742
528.742
528.742
528.741
528.74
528.738
528.733
528.73
528.728
528.725
528.717
528.707
528.693
528.679
528.665
528.651
528.638
528.624
528.612
528.602
528.594
528.59
529.189
529.04
529.057
528.901
529.122
529.137
528.878
528.87
529.063
529.075
528.951
528.887
528.894
528.932
528.901
528.863
528.857
528.854
528.837
528.814
528.791
528.769
528.746
528.722
528.697
528.674
528.652
528.625
528.603
528.582
528.561
528.539
528.514
528.492
528.473
528.454
528.435
528.417
528.399
528.383
528.371
528.365
529.025
528.753
528.824
528.542
528.602
529.02
528.962
528.575
528.619
528.869
528.793
528.66
528.67
528.697
528.66
528.635
528.628
528.615
528.596
528.577
528.559
528.542
528.526
528.512
528.499
528.488
528.48
528.473
528.47
528.467
528.463
528.454
528.443
528.432
528.421
528.41
528.399
528.387
528.377
528.369
528.362
528.357
528.37
528.492
528.795
528.392
528.094
528.456
528.701
528.453
528.239
528.4
528.462
528.368
528.343
528.344
528.333
528.321
528.302
528.285
528.272
528.26
528.249
528.242
528.237
528.234
528.232
528.23
528.228
528.23
528.236
528.246
528.258
528.272
528.287
528.304
528.322
528.339
528.353
528.364
528.372
528.378
528.381
528.384
527.808
528.119
528.368
528.381
527.908
527.657
528.196
528.342
527.987
527.897
528.053
528.05
527.995
527.982
527.982
527.975
527.957
527.944
527.937
527.929
527.923
527.92
527.921
527.924
527.928
527.934
527.943
527.957
527.974
527.994
528.019
528.051
528.09
528.134
528.181
528.229
528.273
528.312
528.344
528.37
528.389
528.399
527.461
527.763
527.81
528.027
527.908
527.405
527.465
527.927
527.867
527.574
527.608
527.688
527.662
527.664
527.606
527.588
527.614
527.614
527.587
527.576
527.577
527.578
527.578
527.582
527.589
527.6
527.615
527.636
527.662
527.692
527.727
527.772
527.828
527.892
527.962
528.036
528.112
528.184
528.25
528.305
528.345
528.369
527.416
527.377
527.158
527.45
527.744
527.41
527.037
527.254
527.567
527.375
527.238
527.281
527.298
527.341
527.287
527.213
527.241
527.273
527.25
527.224
527.226
527.232
527.232
527.235
527.243
527.257
527.275
527.298
527.329
527.365
527.41
527.465
527.531
527.607
527.691
527.783
527.881
527.981
528.076
528.16
528.222
528.262
527.324
526.994
526.781
526.826
527.221
527.316
526.951
526.767
527.048
527.107
526.985
526.937
526.92
527.012
527.001
526.889
526.879
526.928
526.933
526.895
526.886
526.896
526.9
526.899
526.906
526.92
526.939
526.963
526.994
527.034
527.083
527.142
527.212
527.291
527.38
527.478
527.584
527.696
527.807
527.909
527.986
528.041
526.59
526.744
527.042
526.882
526.511
526.49
526.862
526.832
526.661
526.623
526.687
526.695
526.594
526.619
526.673
526.604
526.553
526.586
526.608
526.576
526.559
526.566
526.573
526.572
526.576
526.59
526.608
526.631
526.662
526.702
526.75
526.808
526.876
526.953
527.04
527.135
527.238
527.346
527.453
527.551
527.627
527.685
526.251
526.48
526.411
526.599
526.699
526.218
526.166
526.494
526.508
526.323
526.294
526.403
526.373
526.261
526.312
526.349
526.283
526.255
526.279
526.283
526.26
526.251
526.256
526.259
526.26
526.269
526.284
526.304
526.33
526.365
526.407
526.458
526.517
526.585
526.661
526.744
526.832
526.922
527.009
527.087
527.146
527.199
526.395
526.102
525.917
525.979
526.284
526.358
526.012
525.95
526.131
526.144
526.003
526.03
526.12
526.001
525.954
526.034
526.028
525.952
525.951
525.977
525.963
525.942
525.941
525.947
525.946
525.949
525.96
525.975
525.995
526.02
526.052
526.09
526.134
526.185
526.242
526.302
526.364
526.426
526.482
526.532
526.567
526.608
525.687
525.866
526.089
525.995
525.692
525.637
525.927
525.899
525.718
525.783
525.771
525.703
525.788
525.723
525.656
525.721
525.719
525.651
525.653
525.673
525.654
525.631
525.63
525.631
525.625
525.623
525.627
525.633
525.641
525.654
525.671
525.692
525.716
525.743
525.772
525.802
525.831
525.859
525.883
525.902
525.916
525.94
525.464
525.552
525.4
525.626
525.82
525.394
525.341
525.582
525.507
525.447
525.446
525.44
525.463
525.394
525.396
525.421
525.378
525.357
525.363
525.349
525.326
525.316
525.309
525.297
525.285
525.278
525.271
525.264
525.259
525.256
525.253
525.251
525.25
525.249
525.247
525.244
525.239
525.233
525.226
525.219
525.214
525.223
525.168
525.19
524.943
525.404
525.692
525.07
524.798
525.248
525.352
525.115
525.129
525.177
525.106
525.086
525.108
525.075
525.048
525.045
525.028
525.004
524.991
524.976
524.956
524.936
524.918
524.899
524.878
524.856
524.833
524.81
524.786
524.759
524.73
524.7
524.667
524.632
524.596
524.56
524.525
524.496
524.476
524.473
525.152
524.808
524.553
524.825
525.112
524.954
524.69
524.843
524.898
524.759
524.793
524.787
524.729
524.764
524.744
524.695
524.696
524.684
524.653
524.634
524.615
524.588
524.559
524.532
524.503
524.47
524.435
524.397
524.356
524.311
524.263
524.212
524.157
524.1
524.04
523.978
523.915
523.853
523.797
523.749
523.714
523.699
524.205
524.587
524.658
524.722
524.475
524.234
524.513
524.606
524.415
524.406
524.458
524.389
524.38
524.391
524.335
524.316
524.308
524.272
524.244
524.22
524.187
524.152
524.115
524.077
524.034
523.987
523.937
523.883
523.822
523.756
523.686
523.613
523.537
523.457
523.374
523.289
523.205
523.124
523.051
522.987
522.938
522.91
523.929
524.054
523.898
524.238
524.442
523.898
523.777
524.112
524.089
523.959
523.976
523.957
523.957
523.922
523.89
523.883
523.848
523.814
523.789
523.752
523.709
523.665
523.619
523.567
523.509
523.449
523.384
523.313
523.236
523.152
523.062
522.97
522.875
522.777
522.676
522.574
522.474
522.379
522.292
522.216
522.158
522.121
523.917
523.451
523.414
523.416
523.557
523.724
523.54
523.419
523.51
523.508
523.447
523.449
523.431
523.392
523.384
523.351
523.312
523.288
523.25
523.203
523.16
523.11
523.054
522.99
522.922
522.85
522.77
522.684
522.595
522.499
522.397
522.291
522.182
522.07
521.955
521.84
521.727
521.621
521.524
521.44
521.378
521.336
523.103
522.903
522.616
522.967
523.307
522.909
522.696
522.922
522.961
522.834
522.831
522.831
522.784
522.774
522.751
522.702
522.68
522.652
522.602
522.559
522.515
522.46
522.398
522.332
522.262
522.185
522.1
522.008
521.911
521.806
521.695
521.579
521.459
521.335
521.21
521.087
520.966
520.851
520.747
520.659
520.596
520.553
522.672
522.058
521.679
522.076
522.601
522.502
521.942
522.005
522.317
522.157
522.119
522.11
522.079
522.098
522.047
522.003
521.987
521.941
521.893
521.854
521.805
521.744
521.68
521.613
521.537
521.453
521.364
521.271
521.173
521.067
520.953
520.832
520.705
520.574
520.444
520.314
520.188
520.068
519.961
519.873
519.811
519.768
522.049
521.344
521.186
521.081
521.442
521.835
521.585
521.23
521.336
521.466
521.399
521.306
521.305
521.322
521.252
521.213
521.19
521.15
521.111
521.065
521.016
520.967
520.909
520.842
520.762
520.678
520.593
520.501
520.399
520.289
520.171
520.048
519.918
519.785
519.652
519.52
519.39
519.269
519.163
519.076
519.015
518.972
520.406
520.643
520.961
520.739
520.29
520.37
520.778
520.717
520.432
520.511
520.544
520.454
520.477
520.458
520.402
520.373
520.354
520.338
520.289
520.223
520.184
520.149
520.092
520.018
519.935
519.856
519.776
519.685
519.582
519.47
519.352
519.227
519.097
518.964
518.83
518.698
518.571
518.453
518.35
518.265
518.205
518.162
519.527
519.652
519.593
519.898
519.955
519.409
519.5
519.812
519.677
519.592
519.628
519.601
519.592
519.538
519.525
519.495
519.471
519.465
519.41
519.345
519.312
519.277
519.216
519.142
519.065
518.993
518.914
518.823
518.721
518.611
518.494
518.372
518.245
518.115
517.981
517.85
517.727
517.615
517.516
517.433
517.374
517.331
518.39
518.847
518.849
518.991
518.974
518.337
518.589
518.967
518.789
518.59
518.701
518.695
518.635
518.608
518.588
518.544
518.536
518.513
518.45
518.411
518.382
518.335
518.275
518.213
518.151
518.083
518.003
517.916
517.821
517.717
517.604
517.486
517.363
517.236
517.107
516.98
516.861
516.751
516.653
516.571
516.511
516.47
517.493
517.786
517.706
517.925
518.025
517.54
517.52
517.816
517.776
517.627
517.634
517.642
517.619
517.606
517.553
517.556
517.566
517.499
517.459
517.455
517.419
517.358
517.302
517.249
517.193
517.12
517.04
516.959
516.875
516.781
516.678
516.568
516.452
516.331
516.208
516.086
515.969
515.859
515.759
515.675
515.615
515.575
517.087
516.568
516.562
516.395
516.623
516.978
516.779
516.521
516.615
516.743
516.64
516.586
516.64
516.587
516.501
516.565
516.545
516.432
516.421
516.426
516.365
516.301
516.264
516.228
516.176
516.109
516.041
515.972
515.894
515.807
515.715
515.615
515.507
515.395
515.279
515.162
515.045
514.934
514.832
514.746
514.685
514.644
515.457
515.636
515.563
515.784
515.979
515.483
515.293
515.584
515.726
515.538
515.488
515.462
515.519
515.451
515.395
515.457
515.39
515.327
515.363
515.35
515.269
515.23
515.212
515.173
515.114
515.053
515.003
514.948
514.875
514.795
514.714
514.624
514.525
514.421
514.314
514.203
514.088
513.976
513.872
513.784
513.719
513.675
514.932
514.325
514.094
514.166
514.647
514.823
514.341
514.206
514.445
514.482
514.363
514.345
514.421
514.338
514.333
514.367
514.267
514.248
514.272
514.213
514.146
514.137
514.128
514.083
514.025
513.977
513.936
513.883
513.817
513.749
513.678
513.597
513.506
513.411
513.313
513.208
513.096
512.984
512.879
512.788
512.718
512.669
513.607
513.214
513.288
512.995
512.989
513.46
513.509
513.206
513.072
513.275
513.219
513.162
513.184
513.117
513.147
513.142
513.07
513.085
513.088
513.027
512.997
512.994
512.975
512.937
512.901
512.867
512.829
512.776
512.718
512.661
512.599
512.528
512.449
512.362
512.271
512.173
512.067
511.959
511.854
511.76
511.686
511.632
511.894
512.059
512.018
512.115
512.098
511.799
512.018
512.171
511.95
511.953
512.01
511.989
511.959
511.937
511.97
511.932
511.887
511.901
511.897
511.867
511.842
511.812
511.779
511.754
511.729
511.696
511.657
511.613
511.568
511.52
511.466
511.407
511.342
511.268
511.185
511.094
510.997
510.897
510.798
510.706
510.631
510.575
510.267
510.976
511.084
511.075
510.785
510.36
510.799
511.055
510.788
510.706
510.759
510.776
510.728
510.723
510.728
510.676
510.669
510.682
510.667
510.648
510.623
510.592
510.566
510.541
510.507
510.469
510.438
510.411
510.378
510.333
510.281
510.227
510.17
510.112
510.045
509.967
509.882
509.796
509.71
509.629
509.561
509.511
509.08
509.831
510.086
509.663
509.056
509.223
509.869
509.645
509.401
509.499
509.516
509.489
509.473
509.463
509.438
509.41
509.393
509.378
509.383
509.38
509.348
509.32
509.308
509.286
509.238
509.195
509.169
509.152
509.13
509.094
509.048
508.995
508.944
508.897
508.848
508.79
508.723
508.654
508.589
508.528
508.475
508.437
507.669
508.539
508.704
508.459
508.057
507.852
508.359
508.486
508.213
508.126
508.232
508.208
508.173
508.168
508.162
508.136
508.108
508.098
508.079
508.044
508.023
508.018
508.005
507.973
507.935
507.901
507.869
507.84
507.814
507.789
507.757
507.717
507.676
507.638
507.602
507.563
507.52
507.475
507.434
507.398
507.368
507.346
507.135
506.881
507.064
506.526
506.589
507.11
507.095
506.764
506.746
506.868
506.826
506.808
506.803
506.769
506.791
506.762
506.727
506.751
506.73
506.684
506.682
506.685
506.651
506.607
506.588
506.575
506.544
506.505
506.474
506.449
506.423
506.396
506.37
506.344
506.319
506.297
506.279
506.262
506.248
506.237
506.23
506.226
505.837
505.358
505.591
505.034
505.056
505.775
505.856
505.206
505.226
505.535
505.448
505.413
505.403
505.384
505.406
505.358
505.338
505.359
505.32
505.28
505.286
505.286
505.255
505.227
505.215
505.197
505.163
505.13
505.105
505.082
505.058
505.039
505.027
505.014
505.002
504.998
505.003
505.012
505.022
505.036
505.049
505.06
504.594
503.816
503.602
503.635
504.203
504.448
503.959
503.666
503.962
504.103
503.966
503.954
503.956
503.934
503.955
503.95
503.931
503.942
503.914
503.853
503.825
503.827
503.823
503.804
503.783
503.762
503.739
503.721
503.706
503.688
503.67
503.664
503.665
503.664
503.663
503.675
503.699
503.73
503.762
503.794
503.82
503.842
502.538
502.331
502.163
502.873
503.108
502.575
501.965
502.302
502.773
502.631
502.413
502.479
502.542
502.462
502.456
502.502
502.447
502.43
502.424
502.37
502.353
502.372
502.368
502.329
502.297
502.288
502.281
502.27
502.263
502.26
502.262
502.273
502.284
502.291
502.306
502.334
502.372
502.415
502.459
502.502
502.535
502.562
500.419
500.896
501.31
501.426
501.326
500.512
500.55
501.196
501.165
500.902
500.907
500.955
500.98
500.925
500.943
500.954
500.883
500.874
500.874
500.846
500.853
500.868
500.847
500.812
500.802
500.809
500.807
500.799
500.799
500.809
500.828
500.851
500.871
500.892
500.923
500.966
501.016
501.067
501.115
501.16
501.194
501.223
498.966
499.649
499.938
499.473
498.831
499.048
499.749
499.575
499.263
499.313
499.402
499.385
499.37
499.311
499.344
499.349
499.306
499.312
499.317
499.309
499.305
499.287
499.263
499.266
499.289
499.301
499.297
499.302
499.318
499.337
499.361
499.391
499.424
499.46
499.503
499.557
499.616
499.673
499.725
499.769
499.801
499.83
498.245
497.645
497.568
497.439
497.797
498.121
497.739
497.448
497.741
497.912
497.7
497.754
497.748
497.665
497.745
497.727
497.685
497.744
497.738
497.688
497.7
497.727
497.726
497.728
497.747
497.761
497.765
497.789
497.825
497.85
497.869
497.899
497.942
497.99
498.041
498.101
498.165
498.225
498.278
498.324
498.357
498.387
496.044
495.998
495.884
496.497
496.609
496.019
495.648
496.06
496.408
496.167
495.989
496.177
496.138
496.101
496.164
496.092
496.079
496.174
496.144
496.056
496.085
496.156
496.186
496.18
496.175
496.179
496.204
496.251
496.295
496.318
496.34
496.381
496.438
496.491
496.543
496.602
496.663
496.72
496.772
496.822
496.861
496.893
493.943
494.75
494.982
494.889
494.479
493.991
494.53
494.954
494.467
494.328
494.617
494.578
494.493
494.537
494.552
494.465
494.482
494.566
494.537
494.479
494.502
494.557
494.585
494.582
494.575
494.587
494.632
494.688
494.723
494.742
494.771
494.825
494.889
494.95
495.008
495.068
495.121
495.17
495.217
495.265
495.304
495.334
493.216
492.727
492.571
492.754
493.098
493.194
492.742
492.653
492.938
492.967
492.817
492.802
492.835
492.834
492.838
492.814
492.829
492.854
492.852
492.867
492.902
492.924
492.93
492.931
492.943
492.977
493.028
493.07
493.095
493.121
493.168
493.232
493.296
493.354
493.413
493.473
493.526
493.572
493.615
493.656
493.688
493.712
491.811
490.993
490.584
490.885
491.599
491.801
490.957
490.717
491.33
491.431
491.169
491.195
491.241
491.229
491.227
491.222
491.24
491.226
491.221
491.253
491.267
491.259
491.261
491.284
491.313
491.345
491.38
491.408
491.432
491.468
491.522
491.587
491.647
491.699
491.752
491.808
491.865
491.916
491.96
491.995
492.019
492.035
490.205
489.487
489.32
489.057
489.403
489.969
489.979
489.275
489.342
489.682
489.603
489.552
489.546
489.579
489.585
489.559
489.591
489.595
489.584
489.609
489.625
489.614
489.61
489.631
489.66
489.683
489.699
489.717
489.747
489.791
489.843
489.896
489.944
489.988
490.033
490.083
490.135
490.187
490.233
490.268
490.29
490.305
487.578
488.199
488.531
488.04
487.518
487.701
488.3
488.318
487.724
487.811
488.135
487.996
487.922
487.988
487.953
487.916
487.949
487.951
487.932
487.934
487.944
487.953
487.964
487.976
487.99
488.003
488.011
488.022
488.049
488.087
488.124
488.155
488.189
488.229
488.274
488.316
488.357
488.402
488.445
488.479
488.501
488.516
486.865
486.116
485.864
486.026
486.472
486.646
486.193
486.115
486.349
486.362
486.304
486.255
486.276
486.332
486.271
486.304
486.341
486.273
486.266
486.294
486.278
486.264
486.278
486.289
486.285
486.288
486.299
486.315
486.338
486.361
486.373
486.382
486.402
486.44
486.482
486.513
486.539
486.571
486.605
486.631
486.647
486.661
485.006
484.334
483.909
484.648
485.091
484.764
484.143
484.417
484.825
484.665
484.511
484.603
484.608
484.641
484.531
484.568
484.642
484.53
484.524
484.589
484.549
484.508
484.54
484.568
484.544
484.524
484.543
484.571
484.578
484.571
484.565
484.569
484.591
484.624
484.65
484.664
484.678
484.7
484.721
484.734
484.739
484.749
482.53
482.932
482.997
483.043
482.912
482.327
482.663
483.262
482.969
482.626
482.794
482.859
482.827
482.869
482.787
482.842
482.84
482.719
482.8
482.871
482.773
482.737
482.786
482.802
482.756
482.734
482.759
482.78
482.768
482.739
482.719
482.723
482.748
482.768
482.77
482.766
482.771
482.784
482.793
482.793
482.79
482.795
480.953
481.041
480.941
481.239
481.455
480.7
480.774
481.311
481.084
480.956
481.1
481.029
481.091
481.1
481.042
481.109
480.998
480.908
481.048
481.1
480.952
480.948
481.004
480.985
480.934
480.936
480.955
480.945
480.918
480.888
480.863
480.859
480.864
480.861
480.843
480.827
480.823
480.824
480.82
480.811
480.805
480.807
478.926
479.176
479.346
479.593
479.719
478.85
478.593
479.322
479.669
479.275
479.032
479.159
479.262
479.172
479.212
479.29
479.105
479.107
479.255
479.225
479.125
479.152
479.177
479.14
479.114
479.111
479.09
479.061
479.041
479.016
478.987
478.965
478.948
478.922
478.888
478.861
478.845
478.83
478.811
478.794
478.785
478.785
477.97
477.188
476.822
477.128
477.632
477.782
477.083
477.005
477.54
477.527
477.238
477.31
477.393
477.315
477.345
477.376
477.289
477.305
477.346
477.293
477.254
477.259
477.259
477.248
477.24
477.222
477.197
477.176
477.151
477.113
477.069
477.032
476.999
476.959
476.916
476.88
476.849
476.817
476.782
476.753
476.737
476.73
475.399
475.388
475.678
475.25
474.993
475.367
475.627
475.582
475.229
475.303
475.49
475.408
475.378
475.377
475.402
475.402
475.344
475.38
475.403
475.341
475.32
475.35
475.357
475.322
475.279
475.253
475.24
475.222
475.191
475.153
475.109
475.065
475.019
474.971
474.922
474.876
474.828
474.781
474.734
474.695
474.668
474.651
473.037
473.628
473.905
473.447
472.973
473.266
473.699
473.496
473.142
473.351
473.541
473.354
473.412
473.437
473.366
473.42
473.396
473.342
473.369
473.364
473.327
473.327
473.339
473.321
473.278
473.242
473.224
473.203
473.171
473.136
473.099
473.056
473.003
472.944
472.887
472.832
472.776
472.72
472.667
472.624
472.591
472.565
471.824
471.133
470.782
471.23
471.622
471.748
470.995
470.979
471.567
471.538
471.207
471.232
471.459
471.332
471.21
471.308
471.393
471.294
471.245
471.296
471.297
471.262
471.259
471.263
471.235
471.192
471.171
471.155
471.118
471.074
471.035
470.997
470.944
470.876
470.812
470.755
470.698
470.638
470.581
470.535
470.497
470.467
469.743
469.028
468.628
469.094
469.498
469.439
468.734
468.84
469.587
469.508
469.038
469.134
469.333
469.179
469.142
469.194
469.278
469.207
469.107
469.162
469.206
469.168
469.142
469.146
469.136
469.102
469.077
469.056
469.017
468.97
468.927
468.885
468.829
468.76
468.697
468.644
468.588
468.529
468.475
468.431
468.393
468.363
467.464
466.852
466.713
467.134
467.316
467.067
466.661
466.868
467.401
467.167
466.901
467.101
467.149
466.978
467.031
467.114
467.043
467.016
467.015
466.99
467.012
467.031
467.002
466.965
466.955
466.948
466.926
466.898
466.866
466.828
466.783
466.735
466.678
466.617
466.562
466.512
466.456
466.398
466.349
466.31
466.277
466.251
465.457
464.808
464.694
464.154
464.255
465.263
465.467
464.826
464.448
464.748
464.958
464.842
464.774
464.784
464.873
464.833
464.739
464.815
464.836
464.789
464.812
464.824
464.787
464.765
464.76
464.738
464.702
464.677
464.651
464.616
464.579
464.541
464.496
464.447
464.401
464.355
464.303
464.251
464.207
464.173
464.147
464.126
462.704
462.44
462.652
462.204
462.091
462.951
463.241
462.286
461.994
462.715
462.825
462.514
462.517
462.594
462.584
462.559
462.6
462.579
462.507
462.526
462.553
462.517
462.491
462.498
462.499
462.478
462.448
462.419
462.391
462.37
462.348
462.318
462.276
462.236
462.203
462.168
462.125
462.083
462.049
462.022
462.001
461.983
460.138
460.336
460.85
459.98
459.543
460.31
460.883
460.497
459.8
460.081
460.478
460.289
460.213
460.255
460.202
460.275
460.308
460.244
460.286
460.275
460.182
460.194
460.241
460.228
460.187
460.179
460.177
460.154
460.133
460.121
460.1
460.067
460.03
460.001
459.978
459.95
459.916
459.885
459.863
459.846
459.83
459.815
458.164
457.614
457.419
457.775
458.295
458.349
457.611
457.387
457.932
458.111
457.895
457.849
457.913
457.886
457.902
458.008
457.839
457.762
457.969
457.988
457.807
457.846
457.934
457.892
457.826
457.851
457.879
457.86
457.849
457.843
457.817
457.787
457.766
457.749
457.728
457.703
457.679
457.66
457.648
457.638
457.626
457.617
456.039
455.118
454.61
455.446
456.245
455.991
454.807
454.986
455.791
455.637
455.354
455.4
455.527
455.486
455.542
455.591
455.377
455.478
455.645
455.502
455.394
455.499
455.566
455.471
455.459
455.509
455.526
455.519
455.51
455.486
455.466
455.47
455.48
455.471
455.449
455.432
455.423
455.417
455.408
455.395
455.385
455.383
453.253
452.741
452.254
453.41
454.025
452.786
452.194
453.151
453.378
452.89
452.91
453.045
453.049
453.026
453.088
453.024
452.974
453.13
453.134
453.027
453.047
453.087
453.071
453.058
453.072
453.091
453.118
453.137
453.119
453.086
453.092
453.128
453.147
453.137
453.125
453.126
453.134
453.137
453.129
453.118
453.116
453.121
449.793
450.562
450.896
451.062
450.715
449.649
450.327
451.204
450.542
450.211
450.561
450.617
450.55
450.552
450.502
450.593
450.618
450.53
450.617
450.679
450.565
450.537
450.625
450.675
450.649
450.637
450.667
450.696
450.695
450.695
450.718
450.746
450.76
450.765
450.775
450.794
450.811
450.814
450.807
450.803
450.81
450.819
447.285
448.106
448.425
448.421
448.095
447.269
447.755
448.523
448.116
447.706
447.991
448.128
448.016
448.024
448.019
448.118
447.989
447.89
448.158
448.221
448.024
448.037
448.164
448.205
448.168
448.159
448.191
448.235
448.275
448.299
448.305
448.313
448.335
448.367
448.398
448.427
448.447
448.454
448.454
448.457
448.466
448.471
444.945
445.528
445.715
445.681
445.579
444.843
445.176
445.929
445.571
445.151
445.458
445.597
445.502
445.518
445.574
445.642
445.388
445.385
445.727
445.705
445.515
445.584
445.689
445.679
445.644
445.658
445.701
445.757
445.815
445.848
445.846
445.852
445.892
445.947
445.986
446.009
446.03
446.052
446.072
446.086
446.092
446.088
442.521
443.327
443.329
443.02
442.513
442.316
443.228
443.662
442.77
442.406
443.017
443.156
442.901
442.934
442.979
443.027
442.881
442.956
443.14
443.045
442.983
443.09
443.152
443.131
443.123
443.155
443.206
443.266
443.32
443.342
443.343
443.366
443.428
443.492
443.528
443.547
443.574
443.612
443.653
443.68
443.688
443.685
440.735
440.045
439.707
440.08
440.549
440.616
440.103
440.084
440.358
440.355
440.346
440.351
440.389
440.347
440.398
440.481
440.396
440.437
440.499
440.459
440.463
440.493
440.511
440.543
440.582
440.615
440.657
440.723
440.779
440.796
440.809
440.854
440.925
440.985
441.021
441.052
441.094
441.148
441.199
441.231
441.243
441.249
438.451
437.277
436.8
437.384
438.323
438.393
437.273
437.185
438.01
437.91
437.554
437.677
437.835
437.72
437.886
437.919
437.709
437.788
437.921
437.941
437.92
437.872
437.902
438
438.067
438.082
438.1
438.145
438.179
438.198
438.247
438.322
438.387
438.433
438.474
438.524
438.584
438.648
438.701
438.734
438.752
438.77
435.484
434.788
434.258
435.46
436.099
435.254
434.246
435.169
435.829
435.109
434.858
435.177
435.251
435.231
435.349
435.253
435.224
435.241
435.224
435.351
435.366
435.242
435.305
435.442
435.495
435.489
435.519
435.563
435.576
435.605
435.683
435.76
435.803
435.84
435.895
435.965
436.038
436.107
436.159
436.195
436.223
436.254
432.465
432.302
432.105
433.013
433.289
432.516
431.813
432.24
432.858
432.728
432.496
432.519
432.629
432.659
432.61
432.623
432.717
432.576
432.629
432.819
432.735
432.652
432.77
432.861
432.85
432.86
432.914
432.949
432.962
433.018
433.106
433.168
433.202
433.245
433.311
433.385
433.457
433.523
433.573
433.613
433.654
433.692
429.818
429.78
430.312
429.64
429.471
430.142
430.286
429.507
429.622
430.114
430.097
429.884
429.959
429.951
429.911
430.039
429.996
429.921
430.112
430.147
430.047
430.111
430.192
430.184
430.195
430.25
430.299
430.323
430.359
430.423
430.486
430.532
430.576
430.632
430.7
430.771
430.841
430.903
430.951
430.996
431.043
431.078
427.198
427.039
427.604
426.852
426.827
427.769
427.654
426.61
427.034
427.607
427.357
427.191
427.321
427.275
427.343
427.411
427.259
427.42
427.536
427.353
427.411
427.57
427.54
427.498
427.564
427.632
427.648
427.677
427.736
427.789
427.824
427.867
427.924
427.988
428.053
428.118
428.186
428.247
428.301
428.354
428.398
428.423
424.974
424.247
424.43
424.078
424.556
425.286
424.715
423.946
424.635
424.964
424.54
424.58
424.714
424.612
424.736
424.642
424.622
424.927
424.809
424.602
424.806
424.939
424.83
424.84
424.931
424.975
424.98
425.021
425.081
425.123
425.155
425.197
425.25
425.311
425.375
425.438
425.499
425.558
425.62
425.678
425.717
425.734
422.637
421.484
421.294
421.4
422.158
422.657
421.778
421.378
422.07
422.017
421.826
422.074
422.046
421.918
422.014
421.932
422.026
422.232
422.059
421.971
422.169
422.227
422.147
422.181
422.263
422.3
422.304
422.333
422.389
422.441
422.479
422.515
422.56
422.614
422.675
422.734
422.787
422.846
422.912
422.968
422.997
423.012
419.857
418.7
418.264
419.004
419.934
419.868
418.727
418.702
419.441
419.231
419.191
419.48
419.283
419.178
419.328
419.309
419.262
419.485
419.458
419.306
419.443
419.541
419.467
419.482
419.567
419.614
419.609
419.636
419.698
419.74
419.757
419.788
419.843
419.905
419.963
420.014
420.062
420.116
420.173
420.218
420.239
420.256
417.037
416
415.335
416.641
417.573
416.845
415.672
416.275
416.926
416.417
416.441
416.749
416.503
416.495
416.665
416.594
416.593
416.753
416.671
416.653
416.785
416.77
416.728
416.797
416.859
416.86
416.876
416.945
417.011
417.027
417.034
417.073
417.126
417.171
417.213
417.266
417.325
417.373
417.409
417.435
417.45
417.468
413.613
413.664
413.535
414.199
414.397
413.066
413.095
414.396
414.099
413.489
413.789
414.005
413.798
413.914
413.888
413.83
413.92
413.944
413.966
414.041
413.988
413.949
414.047
414.113
414.092
414.097
414.157
414.217
414.236
414.252
414.299
414.357
414.401
414.428
414.46
414.508
414.558
414.592
414.613
414.628
414.641
414.659
410.294
411.475
411.703
411.155
410.284
410.252
411.47
411.604
410.725
410.938
411.218
411.081
411.106
411.175
411.03
411.115
411.203
411.117
411.249
411.329
411.18
411.207
411.36
411.389
411.337
411.372
411.452
411.492
411.481
411.498
411.549
411.595
411.626
411.66
411.703
411.743
411.766
411.778
411.791
411.805
411.816
411.832
407.872
408.226
408.848
407.817
407.284
408.538
409.153
407.984
407.686
408.438
408.413
408.196
408.356
408.272
408.308
408.412
408.356
408.371
408.48
408.5
408.439
408.465
408.56
408.602
408.607
408.637
408.689
408.724
408.733
408.755
408.793
408.824
408.848
408.883
408.924
408.948
408.951
408.95
408.957
408.967
408.978
408.99
405.665
405.062
405.351
404.9
405.212
406.3
405.874
404.722
405.21
405.727
405.493
405.48
405.579
405.467
405.615
405.556
405.528
405.724
405.69
405.662
405.698
405.685
405.749
405.836
405.855
405.853
405.884
405.918
405.93
405.958
406.007
406.041
406.061
406.088
406.114
406.124
406.122
406.118
406.12
406.125
406.132
406.141
403.422
402.14
401.763
402.177
403.253
403.391
402.249
402.098
403.03
402.733
402.506
402.82
402.79
402.742
402.83
402.658
402.816
402.956
402.786
402.883
402.963
402.848
402.921
403.048
403.052
403.028
403.054
403.084
403.1
403.143
403.197
403.224
403.234
403.251
403.27
403.281
403.282
403.281
403.281
403.284
403.285
403.288
400.256
399.458
398.857
400.157
400.787
399.735
399.053
400.024
400.372
399.625
399.699
400.096
399.937
399.985
399.979
399.883
400.06
399.975
399.925
400.176
400.137
399.984
400.108
400.226
400.195
400.173
400.199
400.23
400.265
400.317
400.355
400.366
400.372
400.389
400.409
400.423
400.427
400.427
400.43
400.433
400.43
400.431
396.213
396.914
397.414
397.53
396.881
396.23
396.988
397.46
396.809
396.747
397.186
397.157
397.082
397.126
397.053
397.109
397.146
397.01
397.212
397.385
397.173
397.114
397.292
397.356
397.312
397.318
397.359
397.396
397.429
397.46
397.478
397.488
397.503
397.524
397.545
397.556
397.557
397.556
397.559
397.56
397.556
397.558
393.342
394.329
394.908
393.994
393.43
394.067
394.629
393.974
393.699
394.289
394.277
394.113
394.286
394.238
394.159
394.236
394.226
394.145
394.4
394.488
394.256
394.254
394.432
394.461
394.415
394.449
394.516
394.558
394.568
394.577
394.594
394.608
394.622
394.646
394.669
394.676
394.674
394.673
394.675
394.673
394.666
394.668
391.537
390.908
390.808
390.842
391.293
391.591
391.082
390.813
391.389
391.408
391.071
391.281
391.494
391.296
391.279
391.313
391.364
391.318
391.468
391.582
391.411
391.362
391.531
391.592
391.534
391.549
391.617
391.665
391.668
391.678
391.705
391.723
391.733
391.754
391.773
391.777
391.778
391.784
391.789
391.785
391.775
391.777
388.676
387.994
387.577
388.239
388.741
388.23
387.789
388.371
388.628
388.161
388.186
388.598
388.482
388.346
388.413
388.405
388.477
388.421
388.516
388.684
388.539
388.418
388.589
388.711
388.662
388.633
388.68
388.731
388.747
388.769
388.802
388.823
388.837
388.856
388.866
388.869
388.879
388.894
388.9
388.896
388.885
388.89
385.752
385.146
384.588
385.522
386.087
385.118
384.71
385.567
385.694
385.23
385.44
385.622
385.391
385.475
385.506
385.489
385.548
385.49
385.546
385.731
385.631
385.494
385.643
385.781
385.744
385.714
385.754
385.801
385.823
385.851
385.886
385.908