/*--------------------------------*- C++ -*----------------------------------*\
| =========                 |                                                 |
| \\      /  F ield         | OpenFOAM: The Open Source CFD Toolbox           |
|  \\    /   O peration     | Version:  2412                                  |
|   \\  /    A nd           | Website:  www.openfoam.com                      |
|    \\/     M anipulation  |                                                 |
\*---------------------------------------------------------------------------*/
FoamFile
{
    version     2.0;
    format      ascii;
    arch        "LSB;label=32;scalar=64";
    class       volScalarField;
    location    "0.013";
    object      r_droplet_actual;
}
// * * * * * * * * * * * * * * * * * * * * * * * * * * * * * * * * * * * * * //

dimensions      [0 1 0 0 0 0 0];

internalField   nonuniform List<scalar> 
8988
(
0
0
0
0
0
0
0
0
0
0
0
0
0
0
0
0
0
0
0
0
0
0
0
0
0
0
0
0
0
0
0
0
0
0
0
0
0
0
0
0
0
0
0
0
0
0
0
0
0
0
0
0
0
0
0
0
0
0
0
0
0
0
0
0
0
0
0
0
0
0
0
0
0
0
0
0
0
0
0
0
0
0
0
0
0
0
0
0
0
0
0
0
0
0
0
0
0
0
0
0
0
0
0
0
0
0
0
0
0
0
0
0
0
0
0
0
0
0
0
0
0
0
0
0
0
0
0
0
0
0
0
0
0
0
0
0
0
0
0
0
0
0
0
0
0
0
0
0
0
0
0
0
0
0
0
0
0
0
0
0
0
0
0
0
0
0
0
0
0
0
0
0
0
0
0
0
0
0
0
0
0
0
0
0
0
0
0
0
0
0
0
0
0
0
0
0
0
0
0
0
0
0
0
0
0
0
0
0
0
0
0
0
0
0
0
0
0
0
0
0
0
0
0
0
0
0
0
0
0
0
0
0
0
0
0
0
0
0
0
0
0
0
0
0
0
0
0
0
0
0
0
0
0
0
0
0
0
0
0
0
0
0
0
0
0
0
0
0
0
0
0
0
0
0
0
0
0
0
0
0
0
0
0
0
0
0
0
0
0
0
0
0
0
0
0
0
0
0
0
0
0
0
0
0
0
0
0
0
0
0
0
0
0
0
0
0
0
0
0
0
0
0
0
0
0
0
0
0
0
0
0
0
0
0
0
0
0
0
0
0
0
0
0
0
0
0
0
0
0
0
0
0
0
0
0
0
0
0
0
0
0
0
0
0
0
0
0
0
0
0
0
0
0
0
0
0
0
0
0
0
0
0
0
0
0
0
0
0
0
0
0
0
0
0
0
0
0
0
0
0
0
0
0
0
0
0
0
0
0
0
0
0
0
0
0
0
0
0
0
0
0
0
0
0
0
0
0
0
0
0
0
0
0
0
0
0
0
0
0
0
0
0
0
0
0
0
0
0
0
0
0
0
0
0
0
0
0
0
0
0
0
0
0
0
0
0
0
0
0
0
0
0
0
0
0
0
0
0
0
0
0
0
0
0
0
0
0
0
0
0
0
0
0
0
0
0
0
0
0
0
0
0
0
0
0
0
0
0
0
0
0
0
0
0
0
0
0
0
0
0
0
0
0
0
0
0
0
0
0
0
0
0
0
0
0
0
0
0
0
0
0
0
0
0
0
0
0
0
0
0
0
0
0
0
0
0
0
0
0
0
0
0
0
0
0
0
0
0
0
0
0
0
0
0
0
0
0
0
0
0
0
0
0
0
0
0
0
0
0
0
0
0
0
0
0
0
0
0
0
0
0
0
0
0
0
0
0
0
0
0
0
0
0
0
0
0
0
0
0
0
0
0
0
0
0
0
0
0
0
0
0
0
0
0
0
0
0
0
0
0
0
0
0
0
0
0
0
0
0
0
0
0
0
0
0
0
0
0
0
0
0
0
0
0
0
0
0
0
0
0
0
0
0
0
0
0
0
0
0
0
0
0
0
0
0
0
0
0
0
0
0
0
0
0
0
0
0
0
0
0
0
0
0
0
0
0
0
0
0
0
0
0
0
0
0
0
0
0
0
0
0
0
0
0
0
0
0
0
0
0
0
0
0
0
0
0
0
0
0
0
0
0
0
0
0
0
0
0
0
0
0
0
0
0
0
0
0
0
0
0
0
0
0
0
0
0
0
0
0
0
0
0
0
0
0
0
0
0
0
0
0
0
0
0
0
0
0
0
0
0
0
0
0
0
0
0
0
0
0
0
0
0
0
0
0
0
0
0
0
0
0
0
0
0
0
0
0
0
0
0
0
0
0
0
0
0
0
0
0
0
0
0
0
0
0
0
0
0
0
0
0
0
0
0
0
0
0
0
0
0
0
0
0
0
0
0
0
0
0
0
0
0
0
0
0
0
0
0
0
0
0
0
0
0
0
0
0
0
0
0
0
0
0
0
0
0
0
0
0
0
0
0
0
0
0
0
0
0
0
0
0
0
0
0
0
0
0
0
0
0
0
0
0
0
0
0
0
0
0
0
0
0
0
0
0
0
0
0
0
0
0
0
0
0
0
0
0
0
0
0
0
0
0
0
0
0
0
0
0
0
0
0
0
0
0
0
0
0
0
0
0
0
0
0
0
0
0
0
0
0
0
0
0
0
0
0
0
0
0
0
0
0
0
0
0
0
0
0
0
0
0
0
0
0
0
0
0
0
0
0
0
0
0
0
0
0
0
0
0
0
0
0
0
0
0
0
0
0
0
0
0
0
0
0
0
0
0
0
0
0
0
0
0
0
0
0
0
0
0
0
0
0
0
0
0
0
0
0
0
0
0
0
0
0
0
0
0
0
0
0
0
0
0
0
0
0
0
0
0
0
0
0
0
0
0
0
0
0
0
0
0
0
0
0
0
0
0
0
0
0
0
0
0
0
0
0
0
0
0
0
0
0
0
0
0
0
0
0
0
0
0
0
0
0
0
0
0
0
0
0
0
0
0
0
0
0
0
0
0
0
0
0
0
0
0
0
0
0
0
0
0
0
0
0
0
0
0
0
0
0
0
0
0
0
0
0
0
0
0
0
0
0
0
0
0
0
0
0
0
0
0
0
0
0
0
0
0
0
0
0
0
0
0
0
0
0
0
0
0
0
0
0
0
0
0
0
0
0
0
0
0
0
0
0
0
0
0
0
0
0
0
0
0
0
0
0
0
0
0
0
0
0
0
0
0
0
0
0
0
0
0
0
0
0
0
0
0
0
0
0
0
0
0
0
0
0
0
0
0
0
0
0
0
0
0
0
0
0
0
0
0
0
0
0
0
0
0
0
0
0
0
0
0
0
0
0
0
0
0
0
0
0
0
0
0
0
0
0
0
0
0
0
0
0
0
0
0
0
0
0
0
0
0
0
0
0
0
0
0
0
0
0
0
0
0
0
0
0
0
0
0
0
0
0
0
0
0
0
0
0
0
0
0
0
0
0
0
0
0
0
0
0
0
0
0
0
0
0
0
0
0
0
0
0
0
0
0
0
0
0
0
0
0
0
0
0
0
0
0
0
0
0
0
0
0
0
0
0
0
0
0
0
0
0
0
0
0
0
0
0
0
0
0
0
0
0
0
0
0
0
0
0
0
0
0
0
0
0
0
0
0
0
0
0
0
0
0
0
0
0
0
0
0
0
0
0
0
0
0
0
0
0
0
0
0
0
0
0
0
0
0
0
0
0
0
0
0
0
0
0
0
0
0
0
0
0
0
0
0
0
0
0
0
0
0
0
0
0
0
0
0
0
0
0
0
0
0
0
0
0
0
0
0
0
0
0
0
0
0
0
0
0
0
0
0
0
0
0
0
0
0
0
0
0
0
0
0
0
0
0
0
0
0
0
0
0
0
0
0
0
0
0
0
0
0
0
0
0
0
0
0
0
0
0
0
0
0
0
0
0
0
0
0
0
0
0
0
0
0
0
0
0
0
0
0
0
0
0
0
0
0
0
0
0
0
0
0
0
0
0
0
0
0
0
0
0
0
0
0
0
0
0
0
0
0
0
0
0
0
0
0
0
0
0
0
0
0
0
0
0
0
0
0
0
0
0
0
0
0
0
0
0
0
0
0
0
0
0
0
0
0
0
0
0
0
0
0
0
0
0
0
0
0
0
0
0
0
0
0
0
0
0
0
0
0
0
0
0
0
0
0
0
0
0
0
0
0
0
0
0
0
0
0
0
0
0
0
0
0
0
0
0
0
0
0
0
0
0
0
0
0
0
0
0
0
0
0
0
0
0
0
0
0
0
0
0
0
0
0
0
0
0
0
0
0
0
0
0
0
0
0
0
0
0
0
0
0
0
0
0
0
0
0
0
0
0
0
0
0
0
0
0
0
0
0
0
0
0
0
0
0
0
0
0
0
0
0
0
0
0
0
0
0
0
0
0
0
0
0
0
0
0
0
0
0
0
0
0
0
0
0
0
0
0
0
0
0
0
0
0
0
0
0
0
0
0
0
0
0
0
0
0
0
0
0
0
0
0
0
0
0
0
0
0
0
0
0
0
0
0
0
0
0
0
0
0
0
0
0
0
0
0
0
0
0
0
0
0
0
0
0
0
0
0
0
0
0
0
0
0
0
0
0
0
0
0
0
0
0
0
0
0
0
0
0
0
0
0
0
0
0
0
0
0
0
0
0
0
0
0
0
0
0
0
0
0
0
0
0
0
0
0
0
0
0
0
0
0
0
0
0
0
0
0
0
0
0
0
0
0
0
0
0
0
0
0
0
0
0
0
0
0
0
0
0
0
0
0
0
0
0
0
0
0
0
0
0
0
0
0
0
0
0
0
0
0
0
0
0
0
0
0
0
0
0
0
0
0
0
0
0
0
0
0
0
0
0
0
0
0
0
0
0
0
0
0
0
0
0
0
0
0
0
0
0
0
0
0
0
0
0
0
0
0
0
0
0
0
0
0
0
0
0
0
0
0
0
0
0
0
0
0
0
0
0
0
0
0
0
0
0
0
0
0
0
0
0
0
0
0
0
0
0
0
0
0
0
0
0
0
0
0
0
0
0
0
0
0
0
0
0
0
0
0
0
0
0
0
0
0
0
0
0
0
0
0
0
0
0
0
0
0
0
0
0
0
0
0
0
0
0
0
0
0
0
0
0
0
0
0
0
0
0
0
0
0
0
0
0
0
0
0
0
0
0
0
0
0
0
0
0
0
0
0
0
0
0
0
0
0
0
0
0
0
0
0
0
0
0
0
0
0
0
0
0
0
0
0
0
0
0
0
0
0
0
0
0
0
0
0
0
0
0
0
0
0
0
0
0
0
0
0
0
0
0
0
0
0
0
0
0
0
0
0
0
0
0
0
0
0
0
0
0
0
0
0
0
0
0
0
0
0
0
0
0
0
0
0
0
0
0
0
0
0
0
0
0
0
0
0
0
0
0
0
0
0
0
0
0
0
0
0
0
0
0
0
0
0
0
0
0
0
0
0
0
0
0
0
0
0
0
0
0
0
0
0
0
0
0
0
0
0
0
0
0
0
0
0
0
0
0
0
0
0
0
0
0
0
0
0
0
0
0
0
0
0
0
0
0
0
0
0
0
0
0
0
0
0
0
0
0
0
0
0
0
0
0
0
0
0
0
0
0
0
0
0
0
0
0
0
0
0
0
0
0
0
0
0
0
0
0
0
0
0
0
0
0
0
0
0
0
0
0
0
0
0
0
0
0
0
0
0
0
0
0
0
0
0
0
0
0
0
0
0
0
0
0
0
0
0
0
0
0
0
0
0
0
0
0
0
0
0
0
0
0
0
0
0
0
0
0
0
0
0
0
0
0
0
0
0
0
0
0
0
0
0
0
0
0
0
0
0
0
0
0
0
0
0
0
0
0
0
0
0
0
0
0
0
0
0
0
0
0
0
0
0
0
0
0
0
0
0
0
0
0
0
0
0
0
0
0
0
0
0
0
0
0
0
0
0
0
0
0
0
0
0
0
0
0
0
0
0
0
0
0
0
0
0
0
0
0
0
0
0
0
0
0
0
0
0
0
0
0
0
0
0
0
0
0
0
0
0
0
0
0
0
0
0
0
0
0
0
0
0
0
0
0
0
0
0
0
0
0
0
0
0
0
0
0
0
0
0
0
0
0
0
0
0
0
0
0
0
0
0
0
0
0
0
0
0
0
0
0
0
0
0
0
0
0
0
0
0
0
0
0
0
0
0
0
0
0
0
0
0
0
0
0
0
0
0
0
0
0
0
0
0
0
0
0
0
0
0
0
0
0
0
0
0
0
0
0
0
0
0
0
0
0
0
0
0
0
0
0
0
0
0
0
0
0
0
0
0
0
0
0
0
0
0
0
0
0
0
0
0
0
0
0
0
0
0
0
0
0
0
0
0
0
0
0
0
0
0
0
0
0
0
0
0
0
0
0
0
0
0
0
0
0
0
0
0
0
0
0
0
0
0
0
0
0
0
0
0
0
0
0
0
0
0
0
0
0
0
0
0
0
0
0
0
0
0
0
0
0
0
0
0
0
0
0
0
0
0
0
0
0
0
0
0
0
0
0
0
0
0
0
0
0
0
0
0
0
0
0
0
0
0
0
0
0
0
0
0
0
0
0
0
0
0
0
0
0
0
0
0
0
0
0
0
0
0
0
0
0
0
0
0
0
0
0
0
0
0
0
0
0
0
0
0
0
0
0
0
0
0
0
0
0
0
0
0
0
0
0
0
0
0
0
0
0
0
0
0
0
0
0
0
0
0
0
0
0
0
0
0
0
0
0
0
0
0
0
0
0
0
0
0
0
0
0
0
0
0
0
0
0
0
0
0
0
0
0
0
0
0
0
0
0
0
0
0
0
0
0
0
0
0
0
0
0
0
0
0
0
0
0
0
0
0
0
0
0
0
0
0
0
0
0
0
0
0
0
0
0
0
0
0
0
0
0
0
0
0
0
0
0
0
0
0
0
0
0
0
0
0
0
0
0
0
0
0
0
0
0
0
0
0
0
0
0
0
0
0
0
0
0
0
0
0
0
0
0
0
0
0
0
0
0
0
0
0
0
0
0
0
0
0
0
0
0
0
0
0
0
0
0
0
0
0
0
0
0
0
0
0
0
0
0
0
0
0
0
0
0
0
0
0
0
0
0
0
0
0
0
0
0
0
0
0
0
0
0
0
0
0
0
0
0
0
0
0
0
0
0
0
0
0
0
0
0
0
0
0
0
0
0
0
0
0
0
0
0
0
0
0
0
0
0
0
0
0
0
0
0
0
0
0
0
0
0
0
0
0
0
0
0
0
0
0
0
0
0
0
0
0
0
0
0
0
0
0
0
0
0
0
0
0
0
0
0
0
0
0
0
0
0
0
0
0
0
0
0
0
0
0
0
0
0
0
0
0
0
0
0
0
0
0
0
0
0
0
0
0
0
0
0
0
0
0
0
0
0
0
0
0
0
0
0
0
0
0
0
0
0
0
0
0
0
0
0
0
0
0
0
0
0
0
0
0
0
0
0
0
0
0
0
0
0
0
0
0
0
0
0
0
0
0
0
0
0
0
0
0
0
0
0
0
0
0
0
0
0
0
0
0
0
0
0
0
0
0
0
0
0
0
0
0
0
0
0
0
0
0
0
0
0
0
0
0
0
0
0
0
0
0
0
0
0
0
0
0
0
0
0
0
0
0
0
0
0
0
0
0
0
0
0
0
0
0
0
0
0
0
0
0
0
0
0
0
0
0
0
0
0
0
0
0
0
0
0
0
0
0
0
0
0
0
0
0
0
0
0
0
0
0
0
0
0
0
0
0
0
0
0
0
0
0
0
0
0
0
0
0
0
0
0
0
0
0
0
0
0
0
0
0
0
0
0
0
0
0
0
0
0
0
0
0
0
0
0
0
0
0
0
0
0
0
0
0
0
0
0
0
0
0
0
0
0
0
0
0
0
0
0
0
0
0
0
0
0
0
0
0
0
0
0
0
0
0
0
0
0
0
0
0
0
0
0
0
0
0
0
0
0
0
0
0
0
0
0
0
0
0
0
0
0
0
0
0
0
0
0
0
0
0
0
0
0
0
0
0
0
0
0
0
0
0
0
0
0
0
0
0
0
0
0
0
0
0
0
0
0
0
0
0
0
0
0
0
0
0
0
0
0
0
0
0
0
0
0
0
0
0
0
0
0
0
0
0
0
0
0
0
0
0
0
0
0
0
0
0
0
0
0
0
0
0
0
0
0
0
0
0
0
0
0
0
0
0
0
0
0
0
0
0
0
0
0
0
0
0
0
0
0
0
0
0
0
0
0
0
0
0
0
0
0
0
0
0
0
0
0
0
0
0
0
0
0
0
0
0
0
0
0
0
0
0
0
0
0
0
0
0
0
0
0
0
0
0
0
0
0
0
0
0
0
0
0
0
0
0
0
0
0
0
0
0
0
0
0
0
0
0
0
0
0
0
0
0
0
0
0
0
0
0
0
0
0
0
0
0
0
0
0
0
0
0
0
0
0
0
0
0
0
0
0
0
0
0
0
0
0
0
0
0
0
0
0
0
0
0
0
0
0
0
0
0
0
0
0
0
0
0
0
0
0
0
0
0
0
0
0
0
0
0
0
0
0
0
0
0
0
0
0
0
0
0
0
0
0
0
0
0
0
0
0
0
0
0
0
0
0
0
0
0
0
0
0
0
0
0
0
0
0
0
0
0
0
0
0
0
0
0
0
0
0
0
0
0
0
0
0
0
0
0
0
0
0
0
0
0
0
0
0
0
0
0
0
0
0
0
0
0
0
0
0
0
0
0
0
0
0
0
0
0
0
0
0
0
0
0
0
0
0
0
0
0
0
0
0
0
0
0
0
0
0
0
0
0
0
0
0
0
0
0
0
0
0
0
0
0
0
0
0
0
0
0
0
0
0
0
0
0
0
0
0
0
0
0
0
0
0
0
0
0
0
0
0
0
0
0
0
0
0
0
0
0
0
0
0
0
0
0
0
0
0
0
0
0
0
0
0
0
0
0
0
0
0
0
0
0
0
0
0
0
0
0
0
0
0
0
0
0
0
0
0
0
0
0
0
0
0
0
0
0
0
0
0
0
0
0
0
0
0
0
0
0
0
0
0
0
0
0
0
0
0
0
0
0
0
0
0
0
0
0
0
0
0
0
0
0
0
0
0
0
0
0
0
0
0
0
0
0
0
0
0
0
0
0
0
0
0
0
0
0
0
0
0
0
0
0
0
0
0
0
0
0
0
0
0
0
0
0
0
0
0
0
0
0
0
0
0
0
0
0
0
0
0
0
0
0
0
0
0
0
0
0
0
0
0
0
0
0
0
0
0
0
0
0
0
0
0
0
0
0
0
0
0
0
0
0
0
0
0
0
0
0
0
0
0
0
0
0
0
0
0
0
0
0
0
0
0
0
0
0
0
0
0
0
0
0
0
0
0
0
0
0
0
0
0
0
0
0
0
0
0
0
0
0
0
0
0
0
0
0
0
0
0
0
0
0
0
0
0
0
0
0
0
0
0
0
0
0
0
0
0
0
0
0
0
0
0
0
0
0
0
0
0
0
0
0
0
0
0
0
0
0
0
0
0
0
0
0
0
0
0
0
0
0
0
0
0
0
0
0
0
0
0
0
0
0
0
0
0
0
0
0
0
0
0
0
0
0
0
0
0
0
0
0
0
0
0
0
0
0
0
0
0
0
0
0
0
0
0
0
0
0
0
0
0
0
0
0
0
0
0
0
0
0
0
0
0
0
0
0
0
0
0
0
0
0
0
0
0
0
0
0
0
0
0
0
0
0
0
0
0
0
0
0
0
5.93919e-10
5.92411e-10
5.91202e-10
5.9031e-10
5.89704e-10
5.89336e-10
5.89147e-10
5.89061e-10
5.89024e-10
5.89017e-10
5.89028e-10
5.89057e-10
5.89109e-10
5.89186e-10
5.89284e-10
5.89425e-10
5.89474e-10
5.89401e-10
5.89635e-10
0
0
0
0
0
0
0
0
0
0
0
0
0
0
0
0
0
0
0
0
0
5.92463e-10
5.89339e-10
5.87205e-10
5.85627e-10
5.84475e-10
5.83661e-10
5.83065e-10
5.82657e-10
5.82443e-10
5.82361e-10
5.82335e-10
5.82328e-10
5.82339e-10
5.82387e-10
5.82475e-10
5.82591e-10
5.82722e-10
5.82882e-10
5.8294e-10
5.82874e-10
5.83093e-10
0
0
0
0
0
0
0
0
0
0
0
0
0
0
0
0
0
0
0
0
5.91062e-10
5.85605e-10
5.82362e-10
5.80157e-10
5.78579e-10
5.77481e-10
5.76708e-10
5.76113e-10
5.75695e-10
5.75487e-10
5.75433e-10
5.7543e-10
5.75426e-10
5.75435e-10
5.75501e-10
5.75616e-10
5.75756e-10
5.75908e-10
5.76085e-10
5.76158e-10
5.76103e-10
5.763e-10
0
0
0
0
0
0
0
0
0
0
0
0
0
0
0
0
0
0
0
5.95695e-10
5.84239e-10
5.78722e-10
5.75444e-10
5.73228e-10
5.71632e-10
5.70509e-10
5.69718e-10
5.69119e-10
5.68708e-10
5.68499e-10
5.68423e-10
5.68404e-10
5.68413e-10
5.68467e-10
5.68579e-10
5.68726e-10
5.689e-10
5.69083e-10
5.6926e-10
5.69326e-10
5.69275e-10
5.69444e-10
0
0
0
0
0
0
0
0
0
0
0
0
0
0
0
0
0
0
6.1821e-10
5.88668e-10
5.773e-10
5.71847e-10
5.68611e-10
5.6642e-10
5.64836e-10
5.6364e-10
5.62743e-10
5.62125e-10
5.61751e-10
5.61561e-10
5.61487e-10
5.6148e-10
5.61524e-10
5.61616e-10
5.61743e-10
5.61898e-10
5.62094e-10
5.62298e-10
5.62466e-10
5.62528e-10
5.62487e-10
5.62637e-10
0
0
0
0
0
0
0
0
0
0
0
0
0
0
0
0
0
0
6.07085e-10
5.81465e-10
5.70544e-10
5.65104e-10
5.61815e-10
5.59571e-10
5.57975e-10
5.56784e-10
5.55905e-10
5.55326e-10
5.54984e-10
5.5481e-10
5.54752e-10
5.54769e-10
5.54832e-10
5.54925e-10
5.55042e-10
5.55197e-10
5.55401e-10
5.5561e-10
5.55766e-10
5.55827e-10
5.55812e-10
5.55949e-10
0
0
0
0
0
0
0
0
0
0
0
0
0
0
0
0
0
5.98913e-10
5.89716e-10
5.7247e-10
5.63475e-10
5.58385e-10
5.5511e-10
5.52844e-10
5.51247e-10
5.5009e-10
5.49269e-10
5.48739e-10
5.48422e-10
5.48263e-10
5.48222e-10
5.48247e-10
5.48304e-10
5.48377e-10
5.48479e-10
5.48627e-10
5.48824e-10
5.49023e-10
5.4918e-10
5.49266e-10
5.49297e-10
5.49416e-10
0
0
0
0
0
0
0
0
0
0
0
0
0
0
0
0
0
5.88127e-10
5.76782e-10
5.6388e-10
5.56424e-10
5.51748e-10
5.48559e-10
5.46324e-10
5.44749e-10
5.4362e-10
5.42835e-10
5.42333e-10
5.42029e-10
5.41877e-10
5.41837e-10
5.41857e-10
5.41896e-10
5.41948e-10
5.42038e-10
5.42182e-10
5.42374e-10
5.42566e-10
5.42724e-10
5.4283e-10
5.42906e-10
5.43033e-10
0
0
0
0
0
0
0
0
0
0
0
0
0
0
0
0
0
5.85445e-10
5.67917e-10
5.56266e-10
5.49568e-10
5.45205e-10
5.42145e-10
5.39975e-10
5.38432e-10
5.37323e-10
5.36558e-10
5.36069e-10
5.35768e-10
5.35612e-10
5.35563e-10
5.3557e-10
5.35598e-10
5.3565e-10
5.35754e-10
5.35915e-10
5.36104e-10
5.36289e-10
5.36461e-10
5.36605e-10
5.36726e-10
5.36848e-10
0
0
0
0
0
0
0
0
0
0
0
0
0
0
0
0
6.65387e-10
5.78675e-10
5.59112e-10
5.49006e-10
5.42939e-10
5.38815e-10
5.35867e-10
5.33759e-10
5.32252e-10
5.31169e-10
5.30431e-10
5.29964e-10
5.29674e-10
5.29521e-10
5.29469e-10
5.2947e-10
5.29497e-10
5.29562e-10
5.29689e-10
5.2987e-10
5.3007e-10
5.30256e-10
5.30422e-10
5.30569e-10
5.30684e-10
5.30772e-10
0
0
0
0
0
0
0
0
0
0
0
0
0
0
0
0
7.36962e-10
5.73494e-10
5.51315e-10
5.42125e-10
5.36487e-10
5.32539e-10
5.29686e-10
5.27636e-10
5.26167e-10
5.2512e-10
5.24414e-10
5.2397e-10
5.237e-10
5.23562e-10
5.23512e-10
5.23509e-10
5.23538e-10
5.23616e-10
5.23757e-10
5.23949e-10
5.24154e-10
5.24345e-10
5.24514e-10
5.24661e-10
5.24775e-10
5.24855e-10
0
0
0
0
0
0
0
0
0
0
0
0
0
0
0
0
7.24516e-10
5.68362e-10
5.44659e-10
5.35631e-10
5.3021e-10
5.26409e-10
5.23646e-10
5.21644e-10
5.20208e-10
5.19194e-10
5.18514e-10
5.18089e-10
5.17843e-10
5.17725e-10
5.17684e-10
5.17682e-10
5.17715e-10
5.17799e-10
5.17946e-10
5.18139e-10
5.18343e-10
5.18537e-10
5.18713e-10
5.18864e-10
5.18979e-10
5.19049e-10
0
0
0
0
0
0
0
0
0
0
0
0
0
0
0
0
6.82837e-10
5.62219e-10
5.38501e-10
5.2944e-10
5.2411e-10
5.20418e-10
5.17736e-10
5.15779e-10
5.14374e-10
5.13391e-10
5.12733e-10
5.12326e-10
5.12104e-10
5.12006e-10
5.11976e-10
5.11978e-10
5.12014e-10
5.12104e-10
5.12252e-10
5.12441e-10
5.1264e-10
5.12835e-10
5.13016e-10
5.13171e-10
5.13286e-10
5.13349e-10
0
0
0
0
0
0
0
0
0
0
0
0
0
0
0
4.70139e-10
6.43554e-10
5.54768e-10
5.32335e-10
5.23396e-10
5.18145e-10
5.14542e-10
5.11932e-10
5.10021e-10
5.08653e-10
5.07703e-10
5.07071e-10
5.06687e-10
5.06488e-10
5.06406e-10
5.06382e-10
5.06387e-10
5.06426e-10
5.06518e-10
5.06664e-10
5.06846e-10
5.07039e-10
5.07233e-10
5.07417e-10
5.07576e-10
5.07692e-10
5.07754e-10
0
0
0
0
0
0
0
0
0
0
0
0
0
0
0
5.23497e-10
6.13904e-10
5.47034e-10
5.262e-10
5.17482e-10
5.12332e-10
5.08811e-10
5.0626e-10
5.04394e-10
5.03065e-10
5.02147e-10
5.0154e-10
5.01177e-10
5.00993e-10
5.00918e-10
5.00895e-10
5.009e-10
5.00943e-10
5.01037e-10
5.01181e-10
5.01356e-10
5.01547e-10
5.01742e-10
5.01931e-10
5.02093e-10
5.02212e-10
5.02274e-10
0
0
0
0
0
0
0
0
0
0
0
0
0
0
0
5.36757e-10
5.90535e-10
5.39308e-10
5.2012e-10
5.11676e-10
5.06648e-10
5.03207e-10
5.00712e-10
4.98899e-10
4.97614e-10
4.96728e-10
4.96147e-10
4.95805e-10
4.95629e-10
4.95555e-10
4.95531e-10
4.95537e-10
4.9558e-10
4.95674e-10
4.95813e-10
4.95984e-10
4.96174e-10
4.96373e-10
4.96565e-10
4.9673e-10
4.96851e-10
4.96916e-10
0
0
0
0
0
0
0
0
0
0
0
0
0
0
0
5.3374e-10
5.70892e-10
5.3154e-10
5.1409e-10
5.05984e-10
5.01101e-10
4.97747e-10
4.95322e-10
4.93575e-10
4.92336e-10
4.91477e-10
4.9092e-10
4.90592e-10
4.90416e-10
4.90333e-10
4.90304e-10
4.90308e-10
4.90349e-10
4.90437e-10
4.90569e-10
4.90737e-10
4.9093e-10
4.91134e-10
4.91329e-10
4.91494e-10
4.91619e-10
4.91688e-10
0
0
0
0
0
0
0
0
0
0
0
0
0
0
5.07113e-10
5.31141e-10
5.54949e-10
5.24035e-10
5.0821e-10
5.00453e-10
4.9571e-10
4.92442e-10
4.90096e-10
4.88413e-10
4.87212e-10
4.8638e-10
4.85843e-10
4.85522e-10
4.85344e-10
4.85256e-10
4.85225e-10
4.85225e-10
4.85259e-10
4.85339e-10
4.85462e-10
4.85628e-10
4.85824e-10
4.86032e-10
4.86228e-10
4.86394e-10
4.86522e-10
4.86596e-10
0
0
0
0
0
0
0
0
0
0
0
0
0
0
5.28899e-10
5.26812e-10
5.41851e-10
5.16929e-10
5.02525e-10
4.95093e-10
4.90476e-10
4.87297e-10
4.85028e-10
4.83396e-10
4.8223e-10
4.81428e-10
4.80906e-10
4.80587e-10
4.8041e-10
4.80329e-10
4.803e-10
4.80296e-10
4.80319e-10
4.80386e-10
4.80502e-10
4.80663e-10
4.80858e-10
4.81067e-10
4.81264e-10
4.8143e-10
4.81561e-10
4.81638e-10
0
0
0
0
0
0
0
0
0
0
0
0
0
0
5.30895e-10
5.21028e-10
5.30719e-10
5.10157e-10
4.96981e-10
4.89859e-10
4.85374e-10
4.82291e-10
4.80097e-10
4.78513e-10
4.77387e-10
4.76614e-10
4.76103e-10
4.75788e-10
4.75622e-10
4.75551e-10
4.75525e-10
4.75516e-10
4.75527e-10
4.75583e-10
4.75691e-10
4.75848e-10
4.76039e-10
4.76243e-10
4.76436e-10
4.76601e-10
4.76733e-10
4.76809e-10
0
0
0
0
0
0
0
0
0
0
0
0
0
4.7476e-10
5.27969e-10
5.12932e-10
5.20654e-10
5.03734e-10
4.91656e-10
4.8479e-10
4.80412e-10
4.77413e-10
4.75286e-10
4.73757e-10
4.72674e-10
4.71928e-10
4.71434e-10
4.71135e-10
4.70982e-10
4.70919e-10
4.70893e-10
4.70878e-10
4.70883e-10
4.7093e-10
4.71033e-10
4.71183e-10
4.71365e-10
4.71559e-10
4.71745e-10
4.71904e-10
4.72029e-10
4.721e-10
0
0
0
0
0
0
0
0
0
0
0
0
0
5.20102e-10
5.2653e-10
6.179e-10
5.16907e-10
4.97006e-10
4.86159e-10
4.79771e-10
4.75571e-10
4.72662e-10
4.70603e-10
4.6913e-10
4.68089e-10
4.67377e-10
4.66914e-10
4.6664e-10
4.66499e-10
4.66436e-10
4.66406e-10
4.66388e-10
4.6639e-10
4.66432e-10
4.66529e-10
4.66673e-10
4.66844e-10
4.67025e-10
4.67198e-10
4.67345e-10
4.67456e-10
4.67517e-10
0
0
0
0
0
0
0
0
0
0
0
0
0
5.29598e-10
5.21112e-10
6.90119e-10
5.14858e-10
4.90672e-10
4.80717e-10
4.74825e-10
4.70842e-10
4.68044e-10
4.66054e-10
4.64636e-10
4.63645e-10
4.62979e-10
4.62556e-10
4.62307e-10
4.62175e-10
4.6211e-10
4.62077e-10
4.62057e-10
4.62056e-10
4.62094e-10
4.62189e-10
4.62326e-10
4.62485e-10
4.62651e-10
4.62807e-10
4.62934e-10
4.63027e-10
4.63076e-10
0
0
0
0
0
0
0
0
0
0
0
0
0
5.26805e-10
5.13384e-10
6.64324e-10
5.1105e-10
4.85215e-10
4.75575e-10
4.70006e-10
4.66234e-10
4.6356e-10
4.61646e-10
4.60292e-10
4.59362e-10
4.58749e-10
4.58366e-10
4.58143e-10
4.58021e-10
4.57959e-10
4.57925e-10
4.57902e-10
4.57899e-10
4.57937e-10
4.58029e-10
4.5816e-10
4.58306e-10
4.58456e-10
4.58591e-10
4.58698e-10
4.58776e-10
4.58817e-10
0
0
0
0
0
0
0
0
0
0
0
0
4.86674e-10
5.23029e-10
5.06527e-10
6.11809e-10
5.05079e-10
4.80279e-10
4.7079e-10
4.65403e-10
4.618e-10
4.59246e-10
4.57417e-10
4.56137e-10
4.5527e-10
4.54707e-10
4.5436e-10
4.5416e-10
4.54054e-10
4.54e-10
4.53968e-10
4.53944e-10
4.53939e-10
4.53978e-10
4.54067e-10
4.54191e-10
4.54328e-10
4.54463e-10
4.54579e-10
4.54669e-10
4.54736e-10
4.54773e-10
0
0
0
0
0
0
0
0
0
0
0
0
5.20092e-10
5.18125e-10
5.00438e-10
5.7441e-10
4.9841e-10
4.7548e-10
4.66253e-10
4.61026e-10
4.57564e-10
4.55125e-10
4.53395e-10
4.52197e-10
4.51392e-10
4.50874e-10
4.50562e-10
4.5039e-10
4.50304e-10
4.50262e-10
4.50235e-10
4.50213e-10
4.50209e-10
4.50248e-10
4.50333e-10
4.50452e-10
4.50583e-10
4.50707e-10
4.50809e-10
4.50887e-10
4.50948e-10
4.5098e-10
0
0
0
0
0
0
0
0
0
0
0
0
5.26932e-10
5.12596e-10
4.94421e-10
5.47465e-10
4.91592e-10
4.70774e-10
4.61917e-10
4.56869e-10
4.53545e-10
4.51228e-10
4.49607e-10
4.48497e-10
4.47759e-10
4.47292e-10
4.4702e-10
4.46879e-10
4.46816e-10
4.46787e-10
4.46768e-10
4.46752e-10
4.46749e-10
4.46783e-10
4.46861e-10
4.46975e-10
4.471e-10
4.47215e-10
4.47311e-10
4.47387e-10
4.47445e-10
4.47472e-10
0
0
0
0
0
0
0
0
0
0
0
0
5.24104e-10
5.06446e-10
4.88447e-10
5.2701e-10
4.84841e-10
4.66158e-10
4.57753e-10
4.52914e-10
4.4975e-10
4.47575e-10
4.46077e-10
4.45066e-10
4.44407e-10
4.44002e-10
4.43778e-10
4.43673e-10
4.43634e-10
4.43621e-10
4.43613e-10
4.43604e-10
4.43602e-10
4.43631e-10
4.43703e-10
4.43812e-10
4.43929e-10
4.44039e-10
4.44135e-10
4.44211e-10
4.44269e-10
4.44294e-10
0
0
0
0
0
0
0
0
0
0
0
4.74824e-10
5.20134e-10
5.00327e-10
4.82658e-10
5.10886e-10
4.78347e-10
4.61697e-10
4.53794e-10
4.49201e-10
4.46224e-10
4.4421e-10
4.42852e-10
4.41961e-10
4.414e-10
4.41071e-10
4.40903e-10
4.40837e-10
4.40821e-10
4.40825e-10
4.40829e-10
4.40825e-10
4.40823e-10
4.40847e-10
4.40914e-10
4.41014e-10
4.41125e-10
4.4123e-10
4.41323e-10
4.41398e-10
4.41455e-10
4.41481e-10
0
0
0
0
0
0
0
0
0
0
0
5.14205e-10
5.14891e-10
4.94342e-10
4.77025e-10
4.97779e-10
4.72223e-10
4.57448e-10
4.50078e-10
4.45763e-10
4.42999e-10
4.41169e-10
4.39977e-10
4.39233e-10
4.38793e-10
4.38558e-10
4.38459e-10
4.38438e-10
4.38453e-10
4.38476e-10
4.38492e-10
4.38492e-10
4.38489e-10
4.38511e-10
4.38575e-10
4.3867e-10
4.38774e-10
4.38874e-10
4.38961e-10
4.39031e-10
4.39087e-10
4.39114e-10
0
0
0
0
0
0
0
0
0
0
0
5.24167e-10
5.09106e-10
4.88412e-10
4.71211e-10
4.86748e-10
4.66516e-10
4.53488e-10
4.46678e-10
4.42669e-10
4.40143e-10
4.38529e-10
4.37536e-10
4.36967e-10
4.36672e-10
4.36553e-10
4.3654e-10
4.3658e-10
4.36635e-10
4.36685e-10
4.36714e-10
4.36719e-10
4.36717e-10
4.36736e-10
4.36795e-10
4.36881e-10
4.36977e-10
4.37066e-10
4.37141e-10
4.37199e-10
4.37247e-10
4.37275e-10
0
0
0
0
0
0
0
0
0
0
0
5.22705e-10
5.03031e-10
4.83246e-10
4.86056e-10
4.78006e-10
4.61231e-10
4.49856e-10
4.43641e-10
4.3997e-10
4.3772e-10
4.36364e-10
4.35609e-10
4.35249e-10
4.35133e-10
4.35159e-10
4.35259e-10
4.35381e-10
4.35494e-10
4.3558e-10
4.3563e-10
4.35645e-10
4.35649e-10
4.35669e-10
4.35723e-10
4.35801e-10
4.35885e-10
4.35958e-10
4.36014e-10
4.36055e-10
4.36092e-10
4.36117e-10
0
0
0
0
0
0
0
0
0
0
4.33433e-10
5.18161e-10
4.96853e-10
4.79504e-10
5.9686e-10
4.75435e-10
4.5582e-10
4.46273e-10
4.40946e-10
4.37755e-10
4.35858e-10
4.34817e-10
4.3435e-10
4.34247e-10
4.34355e-10
4.34569e-10
4.34814e-10
4.35043e-10
4.35228e-10
4.35359e-10
4.35435e-10
4.35464e-10
4.35473e-10
4.35491e-10
4.35535e-10
4.356e-10
4.35669e-10
4.35723e-10
4.35759e-10
4.35782e-10
4.35805e-10
4.35825e-10
0
0
0
0
0
0
0
0
0
0
5.00883e-10
5.13e-10
4.90943e-10
4.72923e-10
6.30742e-10
4.73632e-10
4.51154e-10
4.43024e-10
4.3866e-10
4.36089e-10
4.34654e-10
4.34007e-10
4.33893e-10
4.34109e-10
4.34502e-10
4.34953e-10
4.35384e-10
4.35749e-10
4.36029e-10
4.36221e-10
4.36332e-10
4.3638e-10
4.36399e-10
4.36417e-10
4.36453e-10
4.36503e-10
4.36552e-10
4.36585e-10
4.366e-10
4.36605e-10
4.36615e-10
4.3663e-10
0
0
0
0
0
0
0
0
0
0
5.20093e-10
5.07684e-10
4.85499e-10
4.66359e-10
5.57964e-10
4.68039e-10
4.47887e-10
4.40677e-10
4.37084e-10
4.35164e-10
4.3429e-10
4.34141e-10
4.34477e-10
4.35102e-10
4.35854e-10
4.36605e-10
4.3727e-10
4.37807e-10
4.38206e-10
4.38472e-10
4.38625e-10
4.38698e-10
4.3873e-10
4.38757e-10
4.38791e-10
4.38831e-10
4.38862e-10
4.38873e-10
4.38866e-10
4.38849e-10
4.38843e-10
4.38851e-10
0
0
0
0
0
0
0
0
0
0
5.21597e-10
5.02392e-10
4.80363e-10
4.6193e-10
5.14499e-10
4.61668e-10
4.45246e-10
4.39167e-10
4.36374e-10
4.3517e-10
4.3496e-10
4.35421e-10
4.36316e-10
4.37446e-10
4.38641e-10
4.3976e-10
4.40714e-10
4.41465e-10
4.42013e-10
4.4237e-10
4.42571e-10
4.42669e-10
4.42718e-10
4.42752e-10
4.42785e-10
4.42814e-10
4.42826e-10
4.42814e-10
4.42779e-10
4.42735e-10
4.42705e-10
4.42698e-10
0
0
0
0
0
0
0
0
0
0
5.17413e-10
4.9688e-10
4.75629e-10
4.5787e-10
4.87569e-10
4.55755e-10
4.43272e-10
4.38548e-10
4.36677e-10
4.36305e-10
4.36898e-10
4.38134e-10
4.39763e-10
4.41563e-10
4.43339e-10
4.44938e-10
4.46269e-10
4.47297e-10
4.48028e-10
4.48493e-10
4.48752e-10
4.48884e-10
4.48956e-10
4.49006e-10
4.49045e-10
4.49071e-10
4.49071e-10
4.4904e-10
4.48981e-10
4.4891e-10
4.48856e-10
4.48831e-10
0
0
0
0
0
0
0
0
0
4.59923e-10
5.13963e-10
4.91945e-10
4.7127e-10
4.53907e-10
4.68602e-10
4.50386e-10
4.41949e-10
4.38893e-10
4.38198e-10
4.38883e-10
4.40473e-10
4.42642e-10
4.45125e-10
4.47694e-10
4.5015e-10
4.52324e-10
4.5411e-10
4.55472e-10
4.56425e-10
4.57025e-10
4.57364e-10
4.57541e-10
4.57635e-10
4.57691e-10
4.57721e-10
4.57726e-10
4.57693e-10
4.57622e-10
4.5752e-10
4.57412e-10
4.57327e-10
4.57285e-10
0
0
0
0
0
0
0
0
0
5.00684e-10
5.10151e-10
4.87495e-10
4.67275e-10
4.5023e-10
4.54474e-10
4.45925e-10
4.41621e-10
4.40543e-10
4.41244e-10
4.43133e-10
4.45862e-10
4.49166e-10
4.52787e-10
4.56429e-10
4.59832e-10
4.62794e-10
4.65191e-10
4.66984e-10
4.68217e-10
4.68988e-10
4.69426e-10
4.69659e-10
4.6978e-10
4.69846e-10
4.6987e-10
4.69855e-10
4.69789e-10
4.69677e-10
4.6953e-10
4.69382e-10
4.69266e-10
4.69206e-10
0
0
0
0
0
0
0
0
0
5.14576e-10
5.06601e-10
4.83887e-10
4.63902e-10
4.47134e-10
4.44338e-10
4.42784e-10
4.42499e-10
4.43628e-10
4.45976e-10
4.49387e-10
4.53667e-10
4.58526e-10
4.63592e-10
4.68512e-10
4.73013e-10
4.76886e-10
4.8e-10
4.82313e-10
4.8389e-10
4.84874e-10
4.85438e-10
4.85742e-10
4.85901e-10
4.85984e-10
4.86011e-10
4.85982e-10
4.85886e-10
4.85731e-10
4.85537e-10
4.85343e-10
4.85191e-10
4.85109e-10
0
0
0
0
0
0
0
0
0
5.18906e-10
5.0369e-10
4.80981e-10
4.61111e-10
4.46452e-10
4.36784e-10
4.40617e-10
4.44519e-10
4.48395e-10
4.52955e-10
4.58415e-10
4.64649e-10
4.71323e-10
4.78056e-10
4.84479e-10
4.90285e-10
4.95241e-10
4.99201e-10
5.02131e-10
5.04126e-10
5.05372e-10
5.06092e-10
5.06482e-10
5.06688e-10
5.06797e-10
5.0683e-10
5.06789e-10
5.06667e-10
5.06472e-10
5.06232e-10
5.05993e-10
5.05799e-10
5.05692e-10
0
0
0
0
0
0
0
0
0
5.18977e-10
5.01517e-10
4.78475e-10
4.5712e-10
2.83283e-10
4.25102e-10
4.41026e-10
4.48935e-10
4.55764e-10
4.62965e-10
4.70874e-10
4.79378e-10
4.88151e-10
4.9681e-10
5.04968e-10
5.12276e-10
5.18462e-10
5.2337e-10
5.26993e-10
5.29463e-10
5.31014e-10
5.31918e-10
5.32419e-10
5.32696e-10
5.32852e-10
5.32916e-10
5.32885e-10
5.32749e-10
5.32518e-10
5.32227e-10
5.31936e-10
5.31695e-10
5.31559e-10
0
0
0
0
0
0
0
0
0
5.17323e-10
4.99019e-10
4.75968e-10
4.56812e-10
3.0515e-10
4.16951e-10
4.43311e-10
4.5607e-10
4.66405e-10
4.76672e-10
4.87397e-10
4.98482e-10
5.09621e-10
5.2043e-10
5.30501e-10
5.3945e-10
5.46987e-10
5.52958e-10
5.5737e-10
5.60384e-10
5.62279e-10
5.63376e-10
5.63975e-10
5.643e-10
5.64474e-10
5.64533e-10
5.64495e-10
5.64357e-10
5.64129e-10
5.63852e-10
5.63587e-10
5.63372e-10
5.63248e-10
0
0
0
0
0
0
0
0
0
5.14592e-10
4.9709e-10
4.74304e-10
4.54964e-10
3.22652e-10
4.13619e-10
4.48359e-10
4.66643e-10
4.81083e-10
4.9484e-10
5.08664e-10
5.22539e-10
5.36209e-10
5.4928e-10
5.61297e-10
5.71842e-10
5.80589e-10
5.87381e-10
5.92289e-10
5.95631e-10
5.97728e-10
5.99027e-10
5.99828e-10
6.00325e-10
6.00681e-10
6.00977e-10
6.01111e-10
6.01048e-10
6.00822e-10
6.00381e-10
5.99848e-10
5.99313e-10
5.98944e-10
0
0
0
0
0
0
0
0
0
5.11054e-10
4.95671e-10
4.72714e-10
4.54423e-10
3.31444e-10
4.13813e-10
4.56737e-10
4.81382e-10
5.00591e-10
5.18177e-10
5.35241e-10
5.51951e-10
5.68062e-10
5.83119e-10
5.96632e-10
6.08242e-10
6.18002e-10
6.2585e-10
6.31665e-10
6.35564e-10
6.37996e-10
6.39403e-10
6.4022e-10
6.40721e-10
6.41049e-10
6.41288e-10
6.41455e-10
6.41455e-10
6.41283e-10
6.40999e-10
6.40643e-10
6.40299e-10
6.40101e-10
0
0
0
0
0
0
0
0
0
5.06645e-10
4.95793e-10
4.72784e-10
2.24426e-10
3.31828e-10
4.17729e-10
4.69388e-10
5.01058e-10
5.25519e-10
5.47115e-10
5.67339e-10
5.86528e-10
6.04466e-10
6.20752e-10
6.35088e-10
6.47608e-10
6.58651e-10
6.67397e-10
6.73365e-10
6.77372e-10
6.79927e-10
6.81452e-10
6.8234e-10
6.82883e-10
6.83255e-10
6.83544e-10
6.83761e-10
6.83828e-10
6.83724e-10
6.83513e-10
6.8327e-10
6.8305e-10
6.82922e-10
0
0
0
0
0
0
0
0
0
5.01136e-10
4.96837e-10
4.73767e-10
1.38184e-10
3.27514e-10
4.27419e-10
4.8824e-10
5.26844e-10
5.56424e-10
5.81736e-10
6.04559e-10
6.25382e-10
6.44193e-10
6.60905e-10
6.75627e-10
6.88835e-10
7.00336e-10
7.09258e-10
7.15473e-10
7.19544e-10
7.22102e-10
7.23667e-10
7.24612e-10
7.25211e-10
7.25641e-10
7.25989e-10
7.26263e-10
7.26404e-10
7.26387e-10
7.26253e-10
7.26086e-10
7.25913e-10
7.25789e-10
0
0
0
0
0
0
0
0
0
4.87793e-10
4.98493e-10
4.75089e-10
1.05091e-10
3.27103e-10
4.43068e-10
5.14005e-10
5.59253e-10
5.93277e-10
6.21448e-10
6.45822e-10
6.67183e-10
6.85892e-10
7.02278e-10
7.16791e-10
7.29992e-10
7.41427e-10
7.50247e-10
7.56492e-10
7.60581e-10
7.63104e-10
7.6464e-10
7.65601e-10
7.66245e-10
7.66728e-10
7.67127e-10
7.67459e-10
7.67685e-10
7.67774e-10
7.67734e-10
7.67619e-10
7.67442e-10
7.67287e-10
0
0
0
0
0
0
0
0
0
4.57515e-10
5.00648e-10
4.76999e-10
8.40583e-11
3.35997e-10
4.66309e-10
5.46763e-10
5.97855e-10
6.35253e-10
6.65017e-10
6.89656e-10
7.1042e-10
7.28124e-10
7.43462e-10
7.57091e-10
7.69711e-10
7.80741e-10
7.89217e-10
7.95279e-10
7.99294e-10
8.0176e-10
8.03238e-10
8.04177e-10
8.04845e-10
8.05373e-10
8.05827e-10
8.06228e-10
8.06548e-10
8.06752e-10
8.06814e-10
8.06754e-10
8.06572e-10
8.06393e-10
0
0
0
0
0
0
0
0
0
3.87763e-10
5.02682e-10
4.81914e-10
6.74609e-11
3.58149e-10
4.9843e-10
5.85981e-10
6.41435e-10
6.80811e-10
7.10774e-10
7.34437e-10
7.53579e-10
7.69471e-10
7.8311e-10
7.95308e-10
8.06934e-10
8.17264e-10
8.25188e-10
8.30926e-10
8.34798e-10
8.3721e-10
8.38652e-10
8.39561e-10
8.40228e-10
8.40798e-10
8.41324e-10
8.41816e-10
8.42248e-10
8.4258e-10
8.42757e-10
8.42768e-10
8.42605e-10
8.42424e-10
0
0
0
0
0
0
0
0
0
0
5.05342e-10
6.70758e-11
5.2806e-11
3.95719e-10
5.41054e-10
6.31477e-10
6.88885e-10
7.28526e-10
7.57265e-10
7.78742e-10
7.95302e-10
8.08677e-10
8.20115e-10
8.30542e-10
8.40832e-10
8.50179e-10
8.57436e-10
8.62811e-10
8.66546e-10
8.6893e-10
8.70362e-10
8.7126e-10
8.71939e-10
8.72564e-10
8.73187e-10
8.73804e-10
8.74378e-10
8.74855e-10
8.75167e-10
8.75277e-10
8.75169e-10
8.75009e-10
0
0
0
0
0
0
0
0
0
0
5.04767e-10
4.63178e-11
4.23697e-11
4.44199e-10
5.92795e-10
6.82316e-10
7.38887e-10
7.76809e-10
8.02914e-10
8.21212e-10
8.34477e-10
8.44775e-10
8.53589e-10
8.61993e-10
8.70863e-10
8.79179e-10
8.85728e-10
8.90728e-10
8.9432e-10
8.9669e-10
8.98145e-10
8.99069e-10
8.99793e-10
9.00504e-10
9.01256e-10
9.0203e-10
9.02775e-10
9.03423e-10
9.03898e-10
9.04142e-10
9.04129e-10
9.04016e-10
0
0
0
0
0
0
0
0
0
3.36674e-10
5.04924e-10
3.63785e-11
3.37302e-11
5.01009e-10
6.51814e-10
7.37038e-10
7.90132e-10
8.24546e-10
8.4682e-10
8.61102e-10
8.70481e-10
8.77298e-10
8.83257e-10
8.89541e-10
8.96951e-10
9.04308e-10
9.10238e-10
9.1485e-10
9.18253e-10
9.20582e-10
9.22068e-10
9.23049e-10
9.23852e-10
9.24677e-10
9.25577e-10
9.26521e-10
9.27452e-10
9.28293e-10
9.28954e-10
9.29365e-10
9.29488e-10
9.29453e-10
0
0
0
0
0
0
0
0
0
4.23177e-10
5.04785e-10
3.07206e-11
2.53162e-10
5.67755e-10
7.14471e-10
7.93438e-10
8.41319e-10
8.70867e-10
8.88368e-10
8.98066e-10
9.03251e-10
9.06491e-10
9.09656e-10
9.1388e-10
9.19424e-10
9.25573e-10
9.31129e-10
9.35553e-10
9.38807e-10
9.41054e-10
9.42537e-10
9.43565e-10
9.44444e-10
9.45373e-10
9.46404e-10
9.475e-10
9.486e-10
9.49619e-10
9.50459e-10
9.5104e-10
9.51316e-10
9.51374e-10
0
0
0
0
0
0
0
0
0
4.7586e-10
5.03287e-10
2.80789e-11
4.11232e-10
6.44422e-10
7.76343e-10
8.4871e-10
8.90949e-10
9.14993e-10
9.27251e-10
9.32142e-10
9.33115e-10
9.32845e-10
9.3323e-10
9.35286e-10
9.39114e-10
9.44058e-10
9.49075e-10
9.53332e-10
9.56511e-10
9.58696e-10
9.60151e-10
9.61189e-10
9.62101e-10
9.6308e-10
9.64186e-10
9.65381e-10
9.66592e-10
9.67724e-10
9.68682e-10
9.69389e-10
9.69791e-10
9.69932e-10
0
0
0
0
0
0
0
0
0
4.99929e-10
5.02758e-10
2.69566e-11
5.24052e-10
7.22064e-10
8.37926e-10
9.0247e-10
9.38489e-10
9.56742e-10
9.6363e-10
9.63743e-10
9.6062e-10
9.56952e-10
9.54597e-10
9.5447e-10
9.56613e-10
9.60379e-10
9.64754e-10
9.68779e-10
9.71904e-10