/*--------------------------------*- C++ -*----------------------------------*\
| =========                 |                                                 |
| \\      /  F ield         | OpenFOAM: The Open Source CFD Toolbox           |
|  \\    /   O peration     | Version:  2412                                  |
|   \\  /    A nd           | Website:  www.openfoam.com                      |
|    \\/     M anipulation  |                                                 |
\*---------------------------------------------------------------------------*/
FoamFile
{
    version     2.0;
    format      ascii;
    arch        "LSB;label=32;scalar=64";
    class       volScalarField;
    location    "0.013";
    object      rho;
}
// * * * * * * * * * * * * * * * * * * * * * * * * * * * * * * * * * * * * * //

dimensions      [1 -3 0 0 0 0 0];

internalField   nonuniform List<scalar> 
8988
(
0.00432623
0.00433091
0.00433792
0.00434253
0.0043447
0.00434594
0.00434713
0.00434768
0.00434777
0.00434786
0.00434797
0.00434818
0.00434834
0.00434841
0.00434844
0.00434847
0.00434852
0.00434856
0.00434858
0.00434859
0.00434859
0.00434859
0.00434859
0.00434859
0.00434859
0.00434857
0.00434855
0.00434853
0.00434852
0.00434849
0.00434845
0.00434838
0.0043483
0.00434821
0.00434812
0.00434804
0.00434796
0.00434788
0.0043478
0.00434774
0.00434769
0.00434766
0.00430064
0.00430606
0.0043181
0.00432932
0.0043392
0.00434429
0.0043455
0.00434706
0.00434917
0.0043498
0.00434935
0.00434909
0.00434922
0.00434954
0.00434942
0.00434925
0.00434925
0.00434926
0.00434918
0.00434904
0.0043489
0.00434877
0.00434862
0.00434847
0.00434832
0.00434818
0.00434804
0.00434788
0.00434774
0.00434761
0.00434749
0.00434735
0.0043472
0.00434706
0.00434694
0.00434682
0.00434671
0.00434659
0.00434649
0.00434639
0.00434631
0.00434628
0.00427799
0.00428296
0.0042971
0.00431159
0.00432539
0.00433695
0.00434207
0.00434282
0.00434489
0.00434756
0.00434775
0.00434731
0.00434763
0.004348
0.00434789
0.00434782
0.00434784
0.00434779
0.00434769
0.00434758
0.00434747
0.00434737
0.00434726
0.00434718
0.0043471
0.00434703
0.00434698
0.00434694
0.00434692
0.00434691
0.00434688
0.00434683
0.00434676
0.00434669
0.00434662
0.00434655
0.00434648
0.00434641
0.00434635
0.0043463
0.00434625
0.00434623
0.00425629
0.00426367
0.00427982
0.00429573
0.00431074
0.00432539
0.00433506
0.00433857
0.00434031
0.00434316
0.0043447
0.00434487
0.00434523
0.00434559
0.00434575
0.00434582
0.0043458
0.00434575
0.0043457
0.00434563
0.00434556
0.00434551
0.00434548
0.00434546
0.00434545
0.00434544
0.00434543
0.00434544
0.00434548
0.00434554
0.00434562
0.0043457
0.00434579
0.0043459
0.00434601
0.00434611
0.0043462
0.00434627
0.00434632
0.00434636
0.00434637
0.00434639
0.00423859
0.00424691
0.00426266
0.00428202
0.0042982
0.00431179
0.00432572
0.00433362
0.00433586
0.00433814
0.00434096
0.00434213
0.0043426
0.00434306
0.00434341
0.00434359
0.00434361
0.00434362
0.00434362
0.00434359
0.00434355
0.00434353
0.00434354
0.00434355
0.00434358
0.00434361
0.00434367
0.00434375
0.00434386
0.00434399
0.00434414
0.00434434
0.00434458
0.00434485
0.00434514
0.00434544
0.00434571
0.00434595
0.00434614
0.00434631
0.00434642
0.00434648
0.00422338
0.00423155
0.0042461
0.00426734
0.00428727
0.00430149
0.00431465
0.00432637
0.00433192
0.00433407
0.00433689
0.0043391
0.00434006
0.00434079
0.00434087
0.00434104
0.0043414
0.00434152
0.00434143
0.00434139
0.00434141
0.00434142
0.00434142
0.00434144
0.00434149
0.00434155
0.00434164
0.00434177
0.00434194
0.00434212
0.00434234
0.00434262
0.00434296
0.00434336
0.00434379
0.00434425
0.00434471
0.00434516
0.00434557
0.00434591
0.00434615
0.0043463
0.00421053
0.00421665
0.0042297
0.004252
0.00427575
0.00429289
0.00430542
0.00431742
0.00432677
0.00433064
0.00433321
0.00433573
0.00433729
0.00433844
0.00433864
0.00433853
0.00433895
0.00433933
0.00433929
0.00433918
0.00433922
0.00433928
0.00433928
0.0043393
0.00433935
0.00433944
0.00433954
0.00433969
0.00433988
0.00434011
0.00434038
0.00434072
0.00434113
0.0043416
0.00434212
0.00434268
0.00434329
0.0043439
0.00434449
0.00434501
0.00434539
0.00434564
0.00419791
0.00420228
0.00421551
0.00423682
0.00426237
0.00428385
0.00429828
0.00430955
0.00432015
0.00432667
0.00433014
0.00433263
0.00433432
0.00433597
0.00433658
0.00433631
0.00433655
0.00433709
0.00433726
0.00433711
0.0043371
0.00433719
0.00433722
0.00433722
0.00433727
0.00433736
0.00433747
0.00433762
0.00433781
0.00433806
0.00433836
0.00433873
0.00433916
0.00433965
0.0043402
0.0043408
0.00434146
0.00434215
0.00434283
0.00434346
0.00434394
0.00434427
0.004182
0.00418926
0.00420566
0.00422621
0.00424817
0.00427051
0.00429122
0.00430507
0.00431428
0.0043213
0.00432668
0.00433004
0.00433154
0.00433305
0.00433423
0.00433433
0.00433438
0.00433486
0.00433518
0.00433509
0.00433505
0.00433513
0.00433519
0.0043352
0.00433523
0.00433532
0.00433544
0.00433557
0.00433576
0.00433601
0.00433631
0.00433667
0.00433709
0.00433756
0.0043381
0.00433869
0.00433932
0.00433999
0.00434065
0.00434125
0.00434172
0.00434208
0.00416897
0.00417669
0.00419099
0.00421406
0.00423983
0.0042608
0.00428054
0.00429813
0.00430977
0.00431691
0.00432248
0.00432701
0.00432935
0.00433026
0.0043316
0.00433249
0.00433252
0.00433266
0.00433304
0.00433321
0.00433316
0.00433316
0.00433322
0.00433326
0.00433328
0.00433334
0.00433344
0.00433356
0.00433371
0.00433393
0.00433419
0.0043345
0.00433487
0.00433529
0.00433576
0.00433627
0.00433682
0.00433737
0.00433791
0.00433839
0.00433875
0.00433908
0.00415928
0.0041639
0.00417758
0.00420023
0.00422805
0.00425368
0.00427312
0.0042898
0.00430374
0.00431311
0.00431877
0.00432338
0.00432687
0.00432801
0.00432895
0.00433024
0.00433073
0.00433063
0.00433089
0.00433124
0.00433128
0.00433122
0.00433126
0.00433132
0.00433133
0.00433136
0.00433144
0.00433153
0.00433164
0.0043318
0.00433199
0.00433223
0.00433251
0.00433282
0.00433317
0.00433354
0.00433393
0.00433431
0.00433466
0.00433496
0.00433518
0.00433543
0.00414496
0.00415235
0.00416852
0.00419053
0.00421541
0.00424142
0.00426612
0.00428436
0.00429729
0.00430799
0.00431522
0.00431985
0.00432376
0.00432558
0.00432663
0.00432799
0.00432861
0.00432863
0.00432895
0.00432929
0.00432931
0.00432926
0.00432931
0.00432935
0.00432934
0.00432934
0.00432938
0.00432942
0.00432947
0.00432954
0.00432964
0.00432977
0.00432992
0.00433009
0.00433027
0.00433045
0.00433064
0.00433081
0.00433095
0.00433107
0.00433116
0.00433131
0.00413385
0.00414071
0.00415467
0.00417883
0.00420733
0.00423211
0.00425597
0.00427713
0.00429186
0.00430277
0.00431088
0.00431653
0.00432055
0.00432273
0.00432448
0.00432579
0.0043263
0.0043267
0.00432708
0.00432724
0.00432725
0.00432729
0.00432732
0.00432728
0.00432724
0.00432721
0.00432718
0.00432714
0.00432711
0.00432708
0.00432706
0.00432705
0.00432704
0.00432704
0.00432702
0.004327
0.00432697
0.00432694
0.0043269
0.00432685
0.00432682
0.00432688
0.00412262
0.00412914
0.00414261
0.00416837
0.00419793
0.00422239
0.00424603
0.00426966
0.0042866
0.00429742
0.00430645
0.00431309
0.00431706
0.00431995
0.00432212
0.00432328
0.00432404
0.00432464
0.00432494
0.00432506
0.00432515
0.00432517
0.00432512
0.00432505
0.00432497
0.00432487
0.00432475
0.00432462
0.00432448
0.00432433
0.00432417
0.00432401
0.00432383
0.00432364
0.00432344
0.00432323
0.004323
0.00432278
0.00432257
0.00432238
0.00432226
0.00432225
0.00411344
0.00411784
0.0041313
0.00415612
0.00418612
0.00421419
0.00423894
0.00426187
0.00427959
0.00429194
0.00430188
0.00430884
0.00431342
0.00431705
0.00431926
0.00432054
0.00432161
0.00432226
0.00432253
0.00432272
0.0043228
0.00432276
0.00432267
0.00432255
0.00432241
0.00432223
0.00432202
0.00432179
0.00432153
0.00432125
0.00432095
0.00432063
0.00432029
0.00431994
0.00431956
0.00431918
0.00431879
0.00431841
0.00431806
0.00431777
0.00431755
0.00431746
0.00409921
0.00410792
0.00412344
0.00414717
0.00417435
0.00420261
0.00423156
0.00425514
0.00427237
0.00428644
0.00429729
0.00430453
0.00430993
0.00431382
0.00431611
0.00431779
0.00431896
0.00431955
0.00431991
0.00432009
0.00432011
0.00432004
0.00431991
0.00431974
0.00431951
0.00431924
0.00431895
0.00431861
0.00431823
0.00431782
0.00431738
0.00431692
0.00431645
0.00431596
0.00431545
0.00431492
0.0043144
0.0043139
0.00431345
0.00431305
0.00431275
0.00431258
0.00408929
0.00409659
0.00411083
0.00413634
0.00416654
0.00419355
0.0042209
0.0042469
0.00426611
0.00428035
0.00429178
0.00429999
0.00430598
0.00430999
0.00431273
0.00431471
0.00431586
0.00431655
0.00431698
0.00431712
0.00431711
0.00431701
0.00431683
0.00431658
0.00431626
0.00431591
0.00431552
0.00431509
0.00431461
0.00431408
0.00431352
0.00431295
0.00431236
0.00431175
0.00431113
0.0043105
0.00430988
0.0043093
0.00430876
0.00430828
0.00430793
0.0043077
0.00408127
0.00408515
0.00410012
0.00412372
0.00415381
0.00418562
0.00421337
0.00423752
0.00425837
0.00427426
0.00428598
0.00429497
0.00430136
0.00430576
0.00430895
0.00431098
0.00431225
0.0043131
0.0043135
0.00431363
0.00431366
0.00431355
0.00431332
0.00431299
0.00431262
0.0043122
0.00431172
0.0043112
0.00431064
0.00431005
0.00430941
0.00430875
0.00430807
0.00430738
0.00430667
0.00430596
0.00430526
0.0043046
0.004304
0.00430348
0.0043031
0.00430284
0.00406898
0.00407439
0.00408789
0.00411363
0.00414512
0.00417402
0.00420231
0.00422943
0.00425085
0.00426682
0.00427964
0.00428924
0.00429597
0.00430093
0.00430433
0.00430648
0.00430801
0.00430894
0.00430935
0.00430954
0.00430959
0.00430948
0.00430924
0.00430891
0.00430853
0.00430808
0.00430757
0.00430701
0.00430641
0.00430576
0.00430507
0.00430435
0.0043036
0.00430283
0.00430206
0.0043013
0.00430055
0.00429984
0.00429919
0.00429865
0.00429826
0.00429799
0.00405917
0.00406224
0.00407521
0.00410123
0.00413397
0.00416503
0.00419187
0.00421878
0.00424271
0.0042593
0.00427265
0.00428281
0.00429014
0.00429569
0.00429922
0.00430163
0.00430335
0.00430428
0.00430478
0.00430506
0.00430511
0.00430499
0.00430476
0.00430444
0.00430403
0.00430354
0.00430301
0.00430246
0.00430185
0.00430119
0.00430048
0.00429972
0.00429893
0.00429812
0.00429731
0.00429651
0.00429573
0.00429499
0.00429433
0.00429378
0.00429339
0.00429313
0.00404861
0.00405122
0.00406544
0.00408849
0.00412039
0.00415472
0.00418397
0.00420909
0.00423255
0.00425169
0.00426556
0.00427581
0.00428383
0.00428976
0.00429349
0.00429616
0.00429802
0.00429911
0.00429975
0.00430005
0.00430014
0.00430012
0.00429996
0.00429966
0.00429923
0.00429875
0.00429824
0.00429769
0.00429706
0.00429637
0.00429564
0.00429487
0.00429406
0.00429324
0.00429241
0.00429159
0.00429079
0.00429004
0.00428938
0.00428884
0.00428847
0.0042882
0.00403244
0.00404047
0.0040575
0.00407981
0.00410696
0.00413973
0.00417342
0.00420098
0.00422282
0.00424238
0.00425754
0.00426842
0.0042771
0.00428323
0.00428737
0.00429035
0.00429242
0.00429379
0.00429446
0.0042947
0.00429489
0.00429499
0.00429487
0.00429454
0.0042941
0.00429365
0.00429318
0.00429263
0.004292
0.0042913
0.00429056
0.00428978
0.00428897
0.00428815
0.00428731
0.0042865
0.00428571
0.00428498
0.00428434
0.00428382
0.00428345
0.00428318
0.00402079
0.00402812
0.00404282
0.00406815
0.00409836
0.00412766
0.00415994
0.00419039
0.00421386
0.00423317
0.00424906
0.00426095
0.00426995
0.0042763
0.00428104
0.00428428
0.00428651
0.00428808
0.00428881
0.00428913
0.0042894
0.00428954
0.00428941
0.0042891
0.00428871
0.0042883
0.00428784
0.00428729
0.00428666
0.00428598
0.00428525
0.00428449
0.0042837
0.00428288
0.00428205
0.00428124
0.00428048
0.00427978
0.00427917
0.00427866
0.00427829
0.00427802
0.0040076
0.00401689
0.00403191
0.00405623
0.00408604
0.00411504
0.00414872
0.00418017
0.00420411
0.00422345
0.00424049
0.00425312
0.00426234
0.00426928
0.00427433
0.00427774
0.00428026
0.00428187
0.00428266
0.00428321
0.00428356
0.00428364
0.00428353
0.00428332
0.00428303
0.00428266
0.0042822
0.00428167
0.00428109
0.00428044
0.00427974
0.00427899
0.00427822
0.00427743
0.00427663
0.00427585
0.00427511
0.00427442
0.00427382
0.00427331
0.00427294
0.00427268
0.00399602
0.00400434
0.00401885
0.00404362
0.00407419
0.00410431
0.00413681
0.00416836
0.00419377
0.00421409
0.00423113
0.00424443
0.00425438
0.00426184
0.00426702
0.00427097
0.0042738
0.00427529
0.00427632
0.00427715
0.00427749
0.00427751
0.00427746
0.00427733
0.00427709
0.00427669
0.00427622
0.00427574
0.00427522
0.00427463
0.00427399
0.0042733
0.00427257
0.00427182
0.00427105
0.0042703
0.00426957
0.00426889
0.00426827
0.00426775
0.00426738
0.00426713
0.00398769
0.00399131
0.00400619
0.00402864
0.00405998
0.00409524
0.00412703
0.00415578
0.00418265
0.0042053
0.0042223
0.00423579
0.00424671
0.00425432
0.00425961
0.0042642
0.00426703
0.00426836
0.00426967
0.00427062
0.00427086
0.0042709
0.00427097
0.00427096
0.00427077
0.00427041
0.00427002
0.00426961
0.00426913
0.00426859
0.00426802
0.00426739
0.00426671
0.00426601
0.00426529
0.00426456
0.00426384
0.00426315
0.00426252
0.00426199
0.0042616
0.00426135
0.00397263
0.00398025
0.00399475
0.00401945
0.00405058
0.00408094
0.00411309
0.0041456
0.00417331
0.00419465
0.00421256
0.00422676
0.00423817
0.00424607
0.00425187
0.00425669
0.00425941
0.0042612
0.00426289
0.00426381
0.00426397
0.00426418
0.00426439
0.00426438
0.00426415
0.00426385
0.00426358
0.00426325
0.0042628
0.00426231
0.0042618
0.00426124
0.00426061
0.00425997
0.0042593
0.00425861
0.00425789
0.0042572
0.00425655
0.00425601
0.0042556
0.00425533
0.00396408
0.00396711
0.00398056
0.00400425
0.004037
0.00407145
0.00410215
0.00413259
0.00416149
0.00418483
0.00420292
0.00421773
0.00422972
0.00423793
0.00424437
0.00424927
0.00425197
0.00425417
0.0042559
0.0042566
0.0042569
0.00425733
0.00425761
0.00425757
0.00425737
0.00425716
0.00425695
0.00425664
0.00425623
0.00425581
0.00425537
0.00425486
0.00425429
0.00425369
0.00425308
0.00425242
0.00425173
0.00425103
0.00425038
0.00424982
0.00424938
0.00424908
0.00395093
0.00395523
0.00397039
0.00399186
0.0040217
0.00405798
0.00409212
0.00412199
0.00414919
0.00417413
0.00419318
0.00420827
0.0042204
0.0042291
0.00423606
0.00424097
0.00424404
0.0042466
0.0042483
0.00424907
0.00424966
0.00425017
0.0042504
0.00425041
0.00425036
0.00425025
0.00425006
0.00424976
0.0042494
0.00424905
0.00424866
0.00424822
0.00424772
0.00424718
0.0042466
0.00424599
0.00424534
0.00424466
0.00424401
0.00424343
0.00424297
0.00424263
0.00393613
0.0039436
0.00395801
0.00398163
0.00401133
0.00404312
0.0040785
0.00411144
0.00413856
0.0041628
0.00418307
0.00419888
0.00421112
0.00422048
0.00422777
0.00423272
0.00423616
0.00423887
0.00424065
0.0042417
0.00424237
0.00424275
0.00424292
0.00424302
0.00424305
0.00424296
0.00424277
0.00424252
0.00424225
0.00424195
0.00424162
0.00424125
0.00424083
0.00424037
0.00423985
0.00423928
0.00423868
0.00423806
0.00423744
0.00423687
0.0042364
0.00423606
0.00392226
0.00393288
0.00394799
0.00397085
0.00399886
0.00402994
0.00406678
0.00410065
0.00412788
0.00415205
0.00417276
0.00418925
0.0042018
0.00421162
0.00421905
0.00422417
0.00422805
0.0042309
0.00423274
0.00423393
0.00423467
0.00423507
0.00423532
0.00423544
0.00423542
0.00423531
0.00423518
0.00423505
0.00423485
0.00423457
0.00423425
0.0042339
0.00423355
0.00423318
0.00423276
0.00423227
0.00423174
0.0042312
0.00423067
0.00423017
0.00422974
0.00422943
0.00391092
0.00392179
0.00393772
0.003958
0.00398409
0.00401865
0.00405685
0.00408808
0.00411583
0.00414153
0.00416246
0.00417913
0.00419229
0.00420245
0.00421
0.00421552
0.00421954
0.00422238
0.00422447
0.00422585
0.0042266
0.00422707
0.00422743
0.00422758
0.00422749
0.00422735
0.00422727
0.00422721
0.00422708
0.00422686
0.00422657
0.00422624
0.00422592
0.00422562
0.00422531
0.00422494
0.00422452
0.0042241
0.00422369
0.00422331
0.00422298
0.00422274
0.00389826
0.00390975
0.00392506
0.00394628
0.00397344
0.00400577
0.00404327
0.00407687
0.00410485
0.00412988
0.00415186
0.004169
0.00418248
0.00419304
0.00420102
0.00420681
0.00421097
0.00421399
0.00421604
0.00421732
0.00421821
0.00421886
0.00421924
0.00421936
0.00421934
0.00421927
0.00421916
0.00421903
0.00421889
0.00421873
0.00421853
0.00421827
0.00421801
0.00421777
0.00421754
0.0042173
0.00421703
0.00421675
0.00421649
0.00421627
0.00421608
0.00421595
0.00389073
0.0038956
0.00391093
0.00393034
0.0039601
0.00399667
0.00403112
0.00406228
0.00409218
0.00411894
0.00414049
0.00415814
0.00417222
0.00418297
0.00419143
0.00419745
0.00420177
0.00420517
0.00420733
0.00420863
0.0042097
0.00421045
0.00421073
0.00421079
0.0042109
0.00421098
0.00421089
0.00421071
0.00421053
0.00421038
0.00421022
0.00421004
0.00420987
0.00420971
0.00420955
0.00420941
0.00420929
0.00420919
0.0042091
0.00420903
0.00420899
0.00420897
0.00387893
0.00388248
0.00389796
0.00391705
0.0039464
0.00398403
0.00401917
0.00404868
0.00407917
0.00410752
0.00412927
0.00414729
0.00416176
0.00417296
0.00418173
0.00418789
0.00419251
0.00419605
0.00419822
0.00419965
0.00420084
0.00420162
0.00420195
0.00420213
0.0042023
0.00420236
0.00420227
0.00420212
0.00420199
0.00420186
0.0042017
0.00420158
0.0042015
0.00420142
0.00420133
0.0042013
0.00420133
0.00420139
0.00420146
0.00420154
0.00420162
0.00420169
0.00386755
0.00386935
0.00388208
0.00390447
0.00393688
0.00397164
0.00400346
0.00403531
0.00406782
0.00409555
0.00411745
0.00413605
0.00415099
0.00416254
0.00417162
0.0041783
0.00418313
0.00418677
0.00418913
0.00419051
0.00419156
0.0041924
0.00419293
0.0041932
0.00419333
0.00419338
0.00419336
0.00419332
0.00419326
0.00419316
0.00419305
0.004193
0.004193
0.00419299
0.00419298
0.00419305
0.0041932
0.00419339
0.00419359
0.00419379
0.00419396
0.00419409
0.00385158
0.0038566
0.00386962
0.00389582
0.0039261
0.0039562
0.00398731
0.00402307
0.00405693
0.00408338
0.00410522
0.00412472
0.00414045
0.00415199
0.00416121
0.00416846
0.00417326
0.00417689
0.0041795
0.00418103
0.0041822
0.0041832
0.00418377
0.00418393
0.00418401
0.00418415
0.00418423
0.00418425
0.00418424
0.00418423
0.00418425
0.00418432
0.00418438
0.00418442
0.00418451
0.00418468
0.00418491
0.00418518
0.00418545
0.00418572
0.00418593
0.0041861
0.00383554
0.00384454
0.00386083
0.00388338
0.00391155
0.00393992
0.00397489
0.00401263
0.00404372
0.00406975
0.00409333
0.00411312
0.00412901
0.00414106
0.00415072
0.004158
0.0041629
0.00416673
0.0041695
0.00417127
0.00417267
0.00417369
0.00417419
0.00417439
0.00417463
0.00417488
0.00417501
0.00417504
0.00417508
0.00417516
0.00417529
0.00417543
0.00417555
0.00417568
0.00417586
0.00417612
0.00417644
0.00417675
0.00417706
0.00417734
0.00417755
0.00417773
0.00382366
0.00383383
0.00384926
0.00386825
0.00389306
0.00392742
0.00396632
0.00399924
0.00402886
0.00405709
0.00408154
0.00410131
0.0041173
0.00412966
0.0041397
0.00414718
0.00415245
0.00415653
0.00415945
0.00416144
0.00416283
0.00416369
0.0041642
0.00416467
0.00416513
0.00416543
0.00416554
0.00416566
0.00416581
0.00416595
0.00416611
0.0041663
0.0041665
0.00416672
0.00416698
0.00416731
0.00416768
0.00416804
0.00416836
0.00416864
0.00416884
0.00416902
0.00381625
0.00381889
0.00383206
0.00385297
0.00388357
0.00391838
0.00395077
0.00398305
0.00401647
0.00404569
0.00406862
0.00408917
0.00410556
0.00411808
0.00412869
0.00413626
0.00414172
0.00414627
0.00414924
0.00415106
0.00415262
0.00415381
0.00415451
0.004155
0.00415546
0.00415577
0.00415593
0.00415617
0.00415645
0.00415663
0.00415677
0.00415696
0.00415723
0.00415752
0.00415783
0.0041582
0.0041586
0.00415897
0.00415931
0.00415959
0.0041598
0.00415999
0.00380043
0.00380623
0.00381921
0.00384425
0.00387315
0.00390241
0.0039348
0.00397136
0.00400521
0.00403219
0.00405565
0.00407735
0.00409387
0.00410698
0.00411776
0.00412523
0.00413107
0.00413599
0.00413893
0.00414059
0.00414233
0.00414386
0.00414479
0.00414527
0.00414558
0.00414584
0.00414613
0.00414652
0.00414685
0.00414702
0.00414719
0.00414746
0.0041478
0.00414813
0.00414845
0.00414881
0.00414919
0.00414955
0.00414988
0.00415019
0.00415043
0.00415063
0.00378544
0.00379621
0.00381097
0.00383166
0.00385729
0.00388703
0.00392475
0.00396134
0.00399029
0.00401811
0.00404473
0.00406536
0.00408193
0.00409585
0.00410661
0.00411421
0.00412043
0.00412545
0.00412852
0.00413047
0.00413224
0.00413372
0.00413468
0.0041352
0.00413552
0.00413583
0.00413626
0.0041367
0.00413698
0.00413714
0.00413736
0.0041377
0.0041381
0.00413847
0.00413883
0.0041392
0.00413953
0.00413983
0.00414013
0.00414043
0.00414067
0.00414086
0.00377833
0.00378146
0.00379385
0.00381608
0.003846
0.00387902
0.00391078
0.00394434
0.00397809
0.00400711
0.00403129
0.00405238
0.00406996
0.00408388
0.00409481
0.00410304
0.00410943
0.00411424
0.0041176
0.00412011
0.00412202
0.00412335
0.0041242
0.00412478
0.00412523
0.00412569
0.00412617
0.00412654
0.00412676
0.00412698
0.0041273
0.00412771
0.00412811
0.00412846
0.00412883
0.00412919
0.00412952
0.00412981
0.00413008
0.00413034
0.00413054
0.00413069
0.00376736
0.00376859
0.00377942
0.00380213
0.003834
0.00386746
0.00389678
0.00392949
0.00396537
0.00399504
0.00401881
0.00404043
0.00405838
0.00407251
0.00408367
0.00409223
0.00409883
0.00410354
0.00410701
0.00410971
0.00411157
0.00411275
0.00411363
0.00411437
0.00411495
0.00411541
0.00411579
0.00411607
0.0041163
0.00411659
0.00411697
0.00411738
0.00411775
0.00411807
0.0041184
0.00411874
0.00411909
0.00411941
0.00411969
0.00411991
0.00412006
0.00412017
0.00375528
0.00375704
0.00376917
0.00378846
0.00381801
0.00385345
0.00388778
0.00391773
0.00395044
0.00398179
0.0040069
0.00402832
0.00404622
0.00406089
0.00407233
0.00408098
0.00408785
0.00409282
0.00409636
0.00409911
0.00410105
0.00410227
0.00410315
0.0041039
0.0041045
0.00410492
0.0041052
0.00410542
0.0041057
0.00410604
0.00410641
0.00410676
0.00410705
0.00410732
0.0041076
0.0041079
0.00410823
0.00410855
0.00410884
0.00410906
0.0041092
0.00410929
0.00373749
0.00374693
0.0037619
0.00377964
0.00380393
0.00383698
0.0038747
0.00390894
0.00393778
0.00396777
0.00399559
0.00401671
0.00403448
0.00404963
0.00406105
0.00406984
0.00407689
0.004082
0.00408561
0.0040883
0.00409027
0.00409168
0.00409269
0.00409341
0.00409394
0.00409432
0.00409455
0.00409474
0.004095
0.00409531
0.00409559
0.00409581
0.00409602
0.00409626
0.00409653
0.00409679
0.00409704
0.00409732
0.0040976
0.00409781
0.00409795
0.00409804
0.00373083
0.00373226
0.00374363
0.00376507
0.00379482
0.00382758
0.00385894
0.00389258
0.00392644
0.00395612
0.00398186
0.00400385
0.00402251
0.0040379
0.00404943
0.00405888
0.00406614
0.00407094
0.00407474
0.00407769
0.00407957
0.0040809
0.00408197
0.00408272
0.00408316
0.00408348
0.00408375
0.00408398
0.00408422
0.00408443
0.00408455
0.00408464
0.00408478
0.00408501
0.00408526
0.00408544
0.0040856
0.0040858
0.00408601
0.00408618
0.00408628
0.00408637
0.00371746
0.00371928
0.00372961
0.00375421
0.00378366
0.00381318
0.00384336
0.00387904
0.00391399
0.00394281
0.00396825
0.00399145
0.00401036
0.00402592
0.00403742
0.00404713
0.0040548
0.00405946
0.00406339
0.00406667
0.00406848
0.00406968
0.00407092
0.00407181
0.00407215
0.00407234
0.00407267
0.00407299
0.00407313
0.00407315
0.00407316
0.00407321
0.00407337
0.00407357
0.00407371
0.00407379
0.00407387
0.00407401
0.00407414
0.00407422
0.00407426
0.00407432
0.00370066
0.00370867
0.0037217
0.00374202
0.00376789
0.00379575
0.00383142
0.00386893
0.00389966
0.00392756
0.00395522
0.00397854
0.00399754
0.00401346
0.0040254
0.00403544
0.00404282
0.00404759
0.00405217
0.00405557
0.00405709
0.00405839
0.00405978
0.00406063
0.00406084
0.00406103
0.00406141
0.00406169
0.00406171
0.0040616
0.00406151
0.00406157
0.00406174
0.00406186
0.00406186
0.00406182
0.00406184
0.00406193
0.00406198
0.00406198
0.00406197
0.004062
0.00368931
0.00369541
0.00370731
0.00372891
0.00375661
0.00378326
0.00381722
0.00385429
0.0038855
0.00391482
0.00394253
0.00396527
0.00398512
0.00400109
0.00401344
0.00402377
0.00403063
0.00403574
0.0040408
0.00404417
0.00404543
0.00404699
0.00404846
0.00404911
0.0040493
0.00404966
0.00405001
0.0040501
0.00405003
0.00404991
0.0040498
0.00404979
0.00404984
0.00404982
0.0040497
0.00404958
0.00404955
0.00404955
0.00404953
0.00404947
0.00404943
0.00404945
0.00367545
0.00368248
0.00369586
0.00371699
0.00374393
0.00376966
0.00380149
0.00383972
0.00387444
0.00390229
0.00392782
0.00395198
0.00397229
0.00398784
0.004001
0.00401157
0.00401811
0.00402393
0.00402916
0.0040321
0.00403375
0.00403555
0.00403685
0.00403741
0.00403778
0.00403811
0.00403821
0.00403818
0.00403816
0.00403808
0.00403794
0.00403783
0.00403773
0.00403757
0.00403734
0.00403716
0.00403705
0.00403695
0.00403683
0.00403672
0.00403667
0.00403667
0.00366805
0.00366904
0.00367911
0.00370043
0.0037294
0.00376097
0.00379009
0.00382343
0.00385935
0.00388959
0.00391496
0.00393892
0.00395925
0.00397505
0.00398829
0.00399873
0.00400606
0.00401211
0.00401679
0.00401969
0.00402179
0.0040235
0.00402467
0.00402541
0.0040259
0.00402614
0.00402621
0.00402624
0.0040262
0.00402603
0.0040258
0.0040256
0.00402541
0.00402515
0.00402487
0.00402463
0.00402443
0.00402422
0.00402399
0.00402381
0.00402371
0.00402367
0.00365122
0.00365654
0.00367043
0.00368731
0.00371161
0.00374438
0.0037791
0.00381261
0.00384321
0.00387403
0.00390238
0.00392551
0.00394528
0.00396171
0.00397509
0.0039855
0.00399317
0.00399949
0.00400417
0.00400711
0.00400939
0.00401129
0.00401254
0.00401315
0.00401344
0.00401364
0.0040138
0.00401385
0.00401378
0.00401361
0.00401339
0.00401314
0.00401287
0.00401256
0.00401224
0.00401194
0.00401163
0.00401132
0.00401103
0.00401078
0.00401061
0.0040105
0.00363538
0.00364423
0.00365798
0.00367454
0.00369746
0.0037296
0.00376521
0.00379768
0.00382823
0.00385991
0.00388838
0.00391099
0.00393149
0.00394826
0.00396123
0.00397215
0.00398019
0.00398608
0.00399091
0.0039943
0.00399655
0.00399833
0.00399965
0.00400039
0.0040007
0.00400086
0.00400099
0.00400103
0.00400095
0.00400082
0.00400064
0.00400041
0.00400009
0.00399971
0.00399934
0.00399898
0.00399862
0.00399826
0.00399792
0.00399765
0.00399744
0.00399728
0.0036266
0.00362788
0.00363775
0.00365946
0.00368717
0.00371804
0.00374636
0.00377982
0.00381598
0.00384624
0.00387169
0.00389583
0.00391759
0.00393364
0.0039465
0.00395789
0.00396679
0.00397254
0.00397701
0.00398087
0.00398344
0.00398506
0.00398633
0.00398725
0.00398767
0.0039878
0.00398793
0.00398801
0.00398792
0.00398773
0.00398755
0.00398734
0.00398702
0.00398659
0.00398618
0.0039858
0.00398543
0.00398504
0.00398468
0.00398439
0.00398414
0.00398396
0.00361286
0.00361395
0.00362336
0.00364491
0.00367236
0.00370178
0.00373007
0.00376404
0.00380106
0.00383102
0.00385579
0.00388058
0.00390243
0.00391857
0.00393221
0.00394355
0.00395263
0.00395872
0.003963
0.00396699
0.00396992
0.00397158
0.00397276
0.00397371
0.00397428
0.00397448
0.00397459
0.00397466
0.00397456
0.00397435
0.00397415
0.00397393
0.00397359
0.00397315
0.00397274
0.00397239
0.00397203
0.00397164
0.0039713
0.00397102
0.00397078
0.00397058
0.00359774
0.00359936
0.00361019
0.00363131
0.00365719
0.00368515
0.0037149
0.00374924
0.00378487
0.00381392
0.00384004
0.00386571
0.00388687
0.00390318
0.00391763
0.00392939
0.0039377
0.00394424
0.00394928
0.00395287
0.00395574
0.00395783
0.00395903
0.00395976
0.00396035
0.00396074
0.00396089
0.00396091
0.00396086
0.00396072
0.00396051
0.00396025
0.00395991
0.00395952
0.00395916
0.00395883
0.00395847
0.00395809
0.00395777
0.00395752
0.00395732
0.00395715
0.00358414
0.00358552
0.00359635
0.00361147
0.00363656
0.00367169
0.00370487
0.00373398
0.00376412
0.00379655
0.00382568
0.00384956
0.00387023
0.0038879
0.00390282
0.00391401
0.00392237
0.0039297
0.00393501
0.00393856
0.00394152
0.00394361
0.00394482
0.00394567
0.00394632
0.00394662
0.0039467
0.00394675
0.00394674
0.00394664
0.00394647
0.00394627
0.00394601
0.0039457
0.0039454
0.0039451
0.00394476
0.00394442
0.00394414
0.00394392
0.00394375
0.00394362
0.00356613
0.00356965
0.00358234
0.00359794
0.00362155
0.00365554
0.00368907
0.00371611
0.00374663
0.00378164
0.00381029
0.00383314
0.00385444
0.00387273
0.00388723
0.00389871
0.00390809
0.00391496
0.0039198
0.00392386
0.00392692
0.00392877
0.00393008
0.00393115
0.00393185
0.00393218
0.00393231
0.00393234
0.00393232
0.0039323
0.00393225
0.0039321
0.00393186
0.00393161
0.00393139
0.00393116
0.00393087
0.00393059
0.00393037
0.0039302
0.00393007
0.00392995
0.00354965
0.00355582
0.00357018
0.0035831
0.00360459
0.00363781
0.00367273
0.00370299
0.00373099
0.00376331
0.00379379
0.00381749
0.00383846
0.00385673
0.00387114
0.00388341
0.00389289
0.00389963
0.0039053
0.00390925
0.0039116
0.00391381
0.00391563
0.00391659
0.00391704
0.00391747
0.00391779
0.00391786
0.00391789
0.00391794
0.0039179
0.00391773
0.00391751
0.00391734
0.00391719
0.003917
0.00391677
0.00391656
0.00391642
0.00391631
0.00391621
0.00391611
0.00353735
0.00353899
0.00354893
0.0035688
0.00359556
0.00362418
0.00365097
0.00368204
0.00371747
0.00374912
0.00377589
0.00380061
0.00382261
0.00384062
0.00385566
0.00386831
0.00387664
0.0038834
0.00389021
0.00389442
0.00389627
0.00389869
0.00390078
0.00390157
0.00390188
0.00390254
0.00390306
0.00390318
0.00390328
0.00390337
0.0039033
0.00390316
0.00390305
0.00390295
0.00390281
0.00390264
0.00390248
0.00390235
0.00390227
0.0039022
0.00390212
0.00390206
0.00352439
0.00352387
0.00353166
0.00355394
0.00358192
0.00360827
0.0036321
0.00366536
0.00370225
0.00373189
0.00375836
0.00378377
0.00380633
0.0038244
0.00383984
0.00385228
0.00386042
0.00386841
0.00387504
0.00387827
0.00388064
0.00388353
0.00388553
0.00388602
0.00388669
0.00388753
0.00388799
0.00388819
0.0038883
0.00388828
0.00388823
0.00388832
0.00388842
0.00388837
0.00388823
0.00388811
0.00388804
0.00388799
0.00388793
0.00388785
0.00388778
0.00388777
0.00350724
0.00350895
0.00351679
0.00354067
0.00356735
0.00358757
0.00361469
0.00365247
0.00368566
0.00371326
0.0037416
0.00376763
0.00378951
0.00380781
0.00382338
0.00383519
0.0038445
0.00385294
0.00385862
0.00386218
0.00386545
0.00386797
0.00386948
0.00387053
0.00387139
0.00387204
0.00387256
0.00387293
0.00387298
0.00387289
0.00387301
0.00387331
0.00387346
0.00387341
0.00387333
0.00387334
0.00387338
0.00387339
0.00387333
0.00387326
0.00387324
0.00387328
0.00348574
0.0034951
0.00350757
0.00352555
0.00354637
0.0035675
0.00360201
0.00363906
0.00366671
0.00369515
0.0037255
0.00375106
0.00377256
0.0037911
0.00380606
0.00381897
0.00382886
0.00383585
0.00384217
0.00384688
0.00384933
0.00385147
0.0038537
0.00385518