/*--------------------------------*- C++ -*----------------------------------*\
| =========                 |                                                 |
| \\      /  F ield         | OpenFOAM: The Open Source CFD Toolbox           |
|  \\    /   O peration     | Version:  2412                                  |
|   \\  /    A nd           | Website:  www.openfoam.com                      |
|    \\/     M anipulation  |                                                 |
\*---------------------------------------------------------------------------*/
FoamFile
{
    version     2.0;
    format      ascii;
    arch        "LSB;label=32;scalar=64";
    class       volScalarField;
    location    "0.013";
    object      rho_0;
}
// * * * * * * * * * * * * * * * * * * * * * * * * * * * * * * * * * * * * * //

dimensions      [1 -3 0 0 0 0 0];

internalField   nonuniform List<scalar> 
8988
(
0.00432628
0.00433092
0.00433792
0.00434247
0.00434465
0.00434601
0.00434721
0.00434766
0.00434774
0.00434785
0.00434797
0.0043482
0.00434835
0.00434841
0.00434844
0.00434848
0.00434853
0.00434856
0.00434858
0.00434859
0.0043486
0.0043486
0.0043486
0.00434859
0.00434859
0.00434857
0.00434855
0.00434853
0.00434852
0.0043485
0.00434845
0.00434838
0.0043483
0.00434821
0.00434812
0.00434804
0.00434796
0.00434787
0.0043478
0.00434773
0.00434768
0.00434766
0.00430092
0.00430603
0.00431778
0.00432945
0.00433939
0.00434399
0.00434544
0.00434723
0.00434932
0.00434978
0.00434923
0.00434907
0.0043493
0.00434956
0.00434942
0.00434924
0.00434926
0.00434927
0.00434918
0.00434905
0.00434891
0.00434877
0.00434863
0.00434848
0.00434832
0.00434818
0.00434805
0.00434788
0.00434775
0.00434762
0.00434749
0.00434734
0.00434719
0.00434706
0.00434694
0.00434682
0.0043467
0.00434659
0.00434648
0.00434638
0.00434631
0.00434627
0.00427846
0.00428283
0.00429651
0.00431139
0.00432616
0.00433715
0.00434151
0.00434265
0.00434529
0.00434765
0.00434759
0.00434727
0.00434772
0.00434801
0.00434789
0.00434783
0.00434785
0.0043478
0.0043477
0.00434759
0.00434748
0.00434737
0.00434727
0.00434718
0.0043471
0.00434704
0.00434699
0.00434695
0.00434693
0.00434691
0.00434688
0.00434683
0.00434675
0.00434668
0.00434662
0.00434655
0.00434648
0.00434641
0.00434634
0.00434629
0.00434624
0.00434622
0.00425682
0.0042636
0.00427954
0.00429537
0.00431061
0.00432605
0.00433518
0.00433812
0.00434025
0.0043434
0.00434468
0.00434483
0.00434525
0.0043456
0.00434576
0.00434583
0.00434581
0.00434576
0.00434571
0.00434564
0.00434557
0.00434552
0.00434549
0.00434547
0.00434545
0.00434544
0.00434544
0.00434545
0.00434549
0.00434555
0.00434562
0.0043457
0.00434579
0.0043459
0.00434601
0.00434611
0.00434619
0.00434626
0.00434631
0.00434635
0.00434636
0.00434638
0.00423878
0.00424692
0.00426292
0.00428158
0.00429781
0.00431207
0.00432609
0.00433357
0.00433556
0.00433819
0.0043411
0.00434208
0.00434258
0.00434307
0.00434342
0.00434359
0.00434361
0.00434362
0.00434363
0.0043436
0.00434356
0.00434354
0.00434354
0.00434356
0.00434358
0.00434362
0.00434367
0.00434376
0.00434387
0.00434399
0.00434415
0.00434434
0.00434458
0.00434485
0.00434514
0.00434543
0.0043457
0.00434594
0.00434614
0.0043463
0.00434641
0.00434647
0.00422322
0.00423156
0.00424659
0.00426748
0.00428648
0.00430114
0.00431547
0.0043266
0.00433146
0.00433397
0.00433706
0.00433911
0.00434006
0.00434078
0.00434085
0.00434106
0.00434142
0.00434152
0.00434142
0.00434139
0.00434142
0.00434142
0.00434142
0.00434144
0.00434149
0.00434155
0.00434165
0.00434178
0.00434194
0.00434213
0.00434235
0.00434262
0.00434296
0.00434336
0.00434379
0.00434425
0.00434471
0.00434516
0.00434556
0.0043459
0.00434614
0.00434629
0.00421002
0.0042167
0.00423001
0.00425244
0.00427588
0.00429217
0.00430523
0.00431797
0.0043269
0.00433039
0.00433313
0.00433579
0.00433732
0.00433843
0.00433858
0.00433852
0.00433898
0.00433934
0.00433928
0.00433918
0.00433923
0.00433928
0.00433928
0.0043393
0.00433935
0.00433944
0.00433954
0.00433969
0.00433988
0.00434011
0.00434038
0.00434072
0.00434113
0.0043416
0.00434212
0.00434269
0.00434329
0.0043439
0.00434449
0.00434501
0.00434539
0.00434563
0.00419753
0.00420233
0.00421547
0.00423716
0.00426268
0.00428375
0.00429779
0.00430957
0.00432047
0.00432662
0.00433
0.00433264
0.00433436
0.00433599
0.00433653
0.00433626
0.00433657
0.00433712
0.00433725
0.00433709
0.0043371
0.00433719
0.00433722
0.00433722
0.00433727
0.00433736
0.00433747
0.00433762
0.00433781
0.00433806
0.00433836
0.00433873
0.00433916
0.00433965
0.0043402
0.0043408
0.00434146
0.00434215
0.00434284
0.00434346
0.00434394
0.00434428
0.00418237
0.00418923
0.0042056
0.00422571
0.00424794
0.00427096
0.00429143
0.00430488
0.00431411
0.00432135
0.00432671
0.00433
0.0043315
0.00433309
0.00433422
0.00433427
0.00433437
0.00433488
0.00433516
0.00433507
0.00433504
0.00433513
0.00433518
0.00433519
0.00433523
0.00433532
0.00433543
0.00433557
0.00433576
0.004336
0.00433631
0.00433667
0.00433709
0.00433756
0.0043381
0.00433869
0.00433933
0.00433999
0.00434065
0.00434126
0.00434173
0.00434209
0.00416868
0.00417674
0.00419137
0.0042142
0.0042394
0.00426052
0.0042808
0.00429832
0.00430963
0.0043168
0.00432254
0.00432703
0.00432927
0.00433024
0.00433163
0.00433248
0.00433247
0.00433265
0.00433304
0.0043332
0.00433314
0.00433315
0.00433321
0.00433324
0.00433327
0.00433333
0.00433343
0.00433355
0.00433371
0.00433392
0.00433418
0.0043345
0.00433487
0.00433529
0.00433576
0.00433628
0.00433682
0.00433738
0.00433792
0.00433841
0.00433877
0.0043391
0.00415893
0.00416397
0.00417754
0.00420051
0.00422827
0.00425345
0.00427282
0.00428989
0.00430389
0.004313
0.00431869
0.00432344
0.00432686
0.00432793
0.00432896
0.00433025
0.00433068
0.00433059
0.00433089
0.00433124
0.00433125
0.0043312
0.00433124
0.0043313
0.00433131
0.00433135
0.00433143
0.00433152
0.00433163
0.00433179
0.00433198
0.00433222
0.0043325
0.00433282
0.00433317
0.00433355
0.00433394
0.00433432
0.00433467
0.00433498
0.0043352
0.00433546
0.00414522
0.00415223
0.00416862
0.00419018
0.00421513
0.00424166
0.0042663
0.00428418
0.00429721
0.00430803
0.00431515
0.00431986
0.00432376
0.00432549
0.00432663
0.004328
0.00432856
0.00432859
0.00432894
0.00432928
0.00432928
0.00432924
0.00432929
0.00432933
0.00432932
0.00432932
0.00432936
0.00432941
0.00432946
0.00432953
0.00432963
0.00432976
0.00432992
0.00433009
0.00433027
0.00433046
0.00433065
0.00433082
0.00433097
0.0043311
0.00433118
0.00433134
0.00413337
0.00414078
0.00415508
0.004179
0.00420702
0.00423178
0.00425617
0.00427723
0.00429172
0.00430274
0.00431086
0.00431651
0.00432052
0.00432269
0.00432447
0.00432577
0.00432626
0.00432668
0.00432707
0.00432721
0.00432722
0.00432727
0.00432729
0.00432726
0.00432722
0.00432719
0.00432716
0.00432713
0.0043271
0.00432707
0.00432705
0.00432704
0.00432704
0.00432704
0.00432703
0.00432702
0.00432699
0.00432696
0.00432692
0.00432688
0.00432685
0.00432691
0.00412175
0.00412931
0.00414333
0.00416866
0.00419762
0.00422173
0.00424615
0.00427011
0.0042864
0.00429728
0.00430649
0.00431305
0.004317
0.00431994
0.0043221
0.00432324
0.00432401
0.00432461
0.00432491
0.00432504
0.00432513
0.00432515
0.0043251
0.00432503
0.00432495
0.00432486
0.00432474
0.00432461
0.00432447
0.00432432
0.00432417
0.004324
0.00432383
0.00432365
0.00432345
0.00432324
0.00432302
0.0043228
0.00432259
0.00432241
0.00432229
0.00432227
0.00411297
0.00411792
0.00413138
0.00415638
0.00418623
0.00421384
0.00423886
0.00426204
0.00427949
0.00429187
0.00430189
0.00430878
0.00431339
0.00431704
0.00431921
0.00432051
0.0043216
0.00432223
0.00432251
0.0043227
0.00432277
0.00432273
0.00432264
0.00432253
0.00432239
0.00432221
0.004322
0.00432178
0.00432152
0.00432124
0.00432094
0.00432062
0.00432029
0.00431994
0.00431957
0.00431919
0.00431881
0.00431843
0.00431809
0.00431779
0.00431758
0.00431749
0.00409916
0.00410789
0.00412385
0.00414707
0.00417373
0.00420267
0.00423187
0.00425499
0.00427224
0.00428648
0.00429727
0.00430447
0.00430992
0.00431378
0.00431607
0.00431778
0.00431894
0.00431952
0.00431988
0.00432007
0.00432008
0.00432002
0.00431989
0.00431972
0.00431949
0.00431922
0.00431893
0.0043186
0.00431822
0.00431781
0.00431737
0.00431692
0.00431646
0.00431597
0.00431546
0.00431494
0.00431442
0.00431392
0.00431347
0.00431307
0.00431278
0.00431261
0.00408855
0.00409676
0.00411153
0.00413649
0.00416614
0.00419308
0.00422109
0.00424717
0.00426593
0.00428028
0.00429178
0.00429997
0.00430595
0.00430995
0.00431271
0.00431469
0.00431583
0.00431653
0.00431696
0.00431709
0.00431709
0.00431699
0.00431682
0.00431656
0.00431624
0.0043159
0.00431551
0.00431508
0.0043146
0.00431408
0.00431352
0.00431295
0.00431236
0.00431176
0.00431114
0.00431051
0.00430989
0.00430931
0.00430877
0.0043083
0.00430795
0.00430772
0.00408123
0.00408521
0.0040997
0.00412382
0.00415421
0.00418554
0.00421311
0.00423753
0.00425844
0.00427421
0.00428595
0.00429496
0.00430133
0.00430574
0.00430894
0.00431095
0.00431223
0.00431308
0.00431348
0.00431361
0.00431364
0.00431353
0.0043133
0.00431298
0.0043126
0.00431219
0.00431171
0.00431119
0.00431064
0.00431004
0.00430941
0.00430875
0.00430808
0.00430738
0.00430667
0.00430597
0.00430527
0.00430462
0.00430402
0.0043035
0.00430311
0.00430286
0.0040683
0.00407448
0.00408835
0.00411394
0.00414503
0.00417356
0.00420233
0.00422969
0.00425074
0.00426675
0.00427966
0.00428922
0.00429595
0.00430092
0.00430431
0.00430646
0.004308
0.00430892
0.00430933
0.00430952
0.00430958
0.00430946
0.00430922
0.0043089
0.00430852
0.00430807
0.00430756
0.00430701
0.00430641
0.00430576
0.00430507
0.00430435
0.0043036
0.00430283
0.00430207
0.0043013
0.00430056
0.00429985
0.0042992
0.00429866
0.00429827
0.00429801
0.00405832
0.00406234
0.00407541
0.00410208
0.00413427
0.00416413
0.00419158
0.0042192
0.0042428
0.00425915
0.00427266
0.0042828
0.00429015
0.00429569
0.00429919
0.00430162
0.00430334
0.00430426
0.00430477
0.00430505
0.0043051
0.00430498
0.00430475
0.00430443
0.00430402
0.00430353
0.00430301
0.00430245
0.00430185
0.00430119
0.00430048
0.00429972
0.00429893
0.00429812
0.00429732
0.00429652
0.00429573
0.00429499
0.00429433
0.00429379
0.0042934
0.00429314
0.00404891
0.0040511
0.00406465
0.00408852
0.0041213
0.00415498
0.00418334
0.00420884
0.00423286
0.00425168
0.00426548
0.00427579
0.00428386
0.00428975
0.00429346
0.00429615
0.00429801
0.00429911
0.00429975
0.00430004
0.00430013
0.00430012
0.00429995
0.00429965
0.00429922
0.00429874
0.00429824
0.00429768
0.00429705
0.00429637
0.00429564
0.00429487
0.00429406
0.00429324
0.00429241
0.00429159
0.00429079
0.00429005
0.00428939
0.00428885
0.00428847
0.0042882
0.0040329
0.00404038
0.00405749
0.00407915
0.00410677
0.00414026
0.00417366
0.00420067
0.00422271
0.00424251
0.00425751
0.00426841
0.00427712
0.0042832
0.00428735
0.00429035
0.00429242
0.00429379
0.00429445
0.00429469
0.0042949
0.004295
0.00429486
0.00429453
0.00429409
0.00429365
0.00429318
0.00429263
0.00429199
0.0042913
0.00429056
0.00428978
0.00428897
0.00428815
0.00428731
0.0042865
0.00428571
0.00428499
0.00428435
0.00428382
0.00428345
0.00428318
0.00401988
0.00402846
0.00404397
0.00406822
0.00409744
0.00412736
0.00416051
0.00419055
0.00421361
0.00423321
0.00424908
0.00426094
0.00426995
0.00427629
0.00428105
0.00428428
0.00428652
0.00428808
0.0042888
0.00428913
0.00428941
0.00428954
0.0042894
0.00428909
0.0042887
0.0042883
0.00428784
0.00428729
0.00428666
0.00428598
0.00428525
0.00428448
0.00428369
0.00428288
0.00428205
0.00428124
0.00428048
0.00427979
0.00427917
0.00427866
0.00427829
0.00427802
0.00400707
0.0040174
0.00403282
0.0040562
0.00408473
0.00411477
0.0041498
0.00418024
0.00420368
0.00422351
0.00424059
0.00425309
0.00426233
0.00426929
0.00427433
0.00427774
0.00428028
0.00428187
0.00428266
0.00428322
0.00428356
0.00428364
0.00428353
0.00428332
0.00428304
0.00428267
0.0042822
0.00428167
0.00428109
0.00428044
0.00427973
0.00427899
0.00427822
0.00427743
0.00427663
0.00427585
0.0042751
0.00427442
0.00427382
0.00427331
0.00427294
0.00427268
0.0039954
0.00400462
0.00401959
0.00404371
0.0040737
0.0041039
0.00413717
0.0041686
0.00419362
0.00421405
0.00423118
0.00424444
0.00425439
0.00426183
0.00426702
0.00427101
0.00427381
0.00427528
0.00427634
0.00427717
0.00427749
0.00427751
0.00427746
0.00427734
0.00427709
0.00427669
0.00427622
0.00427574
0.00427522
0.00427463
0.00427399
0.0042733
0.00427257
0.00427182
0.00427105
0.00427029
0.00426957
0.00426889
0.00426827
0.00426775
0.00426738
0.00426713
0.0039881
0.0039912
0.00400535
0.00402869
0.00406084
0.00409554
0.00412645
0.00415556
0.00418297
0.0042053
0.00422223
0.00423584
0.00424674
0.00425428
0.00425964
0.00426424
0.004267
0.00426836
0.00426971
0.00427064
0.00427085
0.0042709
0.00427099
0.00427097
0.00427077
0.00427041
0.00427003
0.00426961
0.00426913
0.00426859
0.00426802
0.00426739
0.00426671
0.00426601
0.00426528
0.00426456
0.00426383
0.00426314
0.00426251
0.00426198
0.0042616
0.00426135
0.00397214
0.00398049
0.0039953
0.00401959
0.00405036
0.0040804
0.00411318
0.00414608
0.00417322
0.00419452
0.00421258
0.00422681
0.00423818
0.00424603
0.00425191
0.00425672
0.00425938
0.00426123
0.00426293
0.0042638
0.00426396
0.00426419
0.00426441
0.00426438
0.00426415
0.00426385
0.00426359
0.00426326
0.0042628
0.00426231
0.0042618
0.00426123
0.00426061
0.00425996
0.00425929
0.0042586
0.00425789
0.00425719
0.00425655
0.004256
0.0042556
0.00425533
0.0039639
0.0039671
0.00398025
0.00400478
0.00403738
0.00407126
0.00410174
0.00413267
0.00416178
0.00418475
0.00420287
0.0042178
0.00422975
0.00423791
0.00424441
0.00424927
0.00425196
0.00425421
0.00425592
0.00425658
0.00425691
0.00425735
0.00425763
0.00425757
0.00425737
0.00425716
0.00425696
0.00425664
0.00425623
0.00425581
0.00425537
0.00425486
0.00425429
0.00425369
0.00425307
0.00425242
0.00425172
0.00425102
0.00425038
0.00424981
0.00424938
0.00424907
0.00395156
0.003955
0.00396944
0.00399181
0.00402247
0.00405826
0.00409191
0.0041216
0.00414934
0.00417427
0.00419311
0.00420829
0.00422041
0.00422911
0.00423609
0.00424096
0.00424405
0.00424663
0.00424831
0.00424907
0.00424968
0.00425019
0.00425041
0.00425042
0.00425037
0.00425027
0.00425007
0.00424976
0.0042494
0.00424905
0.00424866
0.00424822
0.00424771
0.00424717
0.0042466
0.00424599
0.00424533
0.00424465
0.004244
0.00424342
0.00424296
0.00424262
0.00393532
0.00394407
0.00395885
0.00398177
0.00401052
0.004043
0.00407903
0.00411142
0.00413836
0.00416292
0.00418311
0.00419887
0.00421113
0.00422051
0.00422779
0.00423271
0.00423618
0.0042389
0.00424066
0.00424171
0.00424238
0.00424275
0.00424293
0.00424303
0.00424306
0.00424297
0.00424278
0.00424253
0.00424226
0.00424196
0.00424162
0.00424125
0.00424083
0.00424037
0.00423985
0.00423928
0.00423867
0.00423805
0.00423743
0.00423686
0.00423639
0.00423605
0.00392159
0.00393361
0.00394892
0.00397081
0.00399762
0.00402983
0.00406757
0.00410066
0.0041276
0.00415212
0.00417282
0.00418926
0.0042018
0.00421165
0.00421905
0.00422417
0.00422808
0.00423093
0.00423275
0.00423394
0.00423467
0.00423508
0.00423533
0.00423545
0.00423542
0.00423531
0.00423519
0.00423506
0.00423486
0.00423458
0.00423425
0.0042339
0.00423355
0.00423318
0.00423276
0.00423227
0.00423174
0.0042312
0.00423066
0.00423015
0.00422973
0.00422941
0.00391154
0.00392143
0.00393815
0.00395719
0.00398358
0.00401938
0.00405726
0.00408773
0.00411571
0.00414168
0.00416245
0.00417914
0.00419231
0.00420245
0.00421
0.00421553
0.00421956
0.0042224
0.00422449
0.00422586
0.00422661
0.00422708
0.00422744
0.00422759
0.00422749
0.00422736
0.00422728
0.00422722
0.00422709
0.00422687
0.00422657
0.00422624
0.00422592
0.00422562
0.00422531
0.00422494
0.00422452
0.00422409
0.00422368
0.00422329
0.00422297
0.00422272
0.00389836
0.00390997
0.0039256
0.00394591
0.00397244
0.00400601
0.00404404
0.00407677
0.00410443
0.00413002
0.00415193
0.00416898
0.00418249
0.00419306
0.00420103
0.00420681
0.00421098
0.00421401
0.00421605
0.00421732
0.00421822
0.00421888
0.00421925
0.00421936
0.00421934
0.00421928
0.00421917
0.00421904
0.0042189
0.00421874
0.00421853
0.00421828
0.00421802
0.00421778
0.00421754
0.0042173
0.00421702
0.00421674
0.00421648
0.00421625
0.00421607
0.00421593
0.00389176
0.00389528
0.00390968
0.00393015
0.003961
0.00399725
0.00403054
0.00406198
0.0040924
0.004119
0.00414045
0.00415816
0.00417222
0.00418298
0.00419145
0.00419745
0.0042018
0.00420519
0.00420733
0.00420864
0.00420973
0.00421046
0.00421073
0.0042108
0.00421092
0.004211
0.0042109
0.00421071
0.00421054
0.00421039
0.00421022
0.00421005
0.00420988
0.00420971
0.00420954
0.00420941
0.00420929
0.00420918
0.00420909
0.00420902
0.00420897
0.00420895
0.00387991
0.00388218
0.00389627
0.003917
0.003948
0.00398457
0.00401793
0.00404841
0.0040797
0.00410763
0.00412918
0.00414731
0.00416177
0.00417299
0.00418174
0.00418789
0.00419254
0.00419607
0.00419821
0.00419967
0.00420086
0.00420163
0.00420196
0.00420214
0.00420231
0.00420237
0.00420227
0.00420213
0.004202
0.00420187
0.00420171
0.00420159
0.00420151
0.00420142
0.00420133
0.0042013
0.00420133
0.00420138
0.00420144
0.00420152
0.0042016
0.00420167
0.00386764
0.00386919
0.00388112
0.00390519
0.00393801
0.00397147
0.00400242
0.00403529
0.00406843
0.00409547
0.00411737
0.00413609
0.00415101
0.00416257
0.00417165
0.00417832
0.00418315
0.00418678
0.00418912
0.00419051
0.00419158
0.00419242
0.00419295
0.00419321
0.00419334
0.00419339
0.00419337
0.00419332
0.00419327
0.00419317
0.00419305
0.004193
0.00419301
0.00419298
0.00419297
0.00419305
0.00419319
0.00419338
0.00419358
0.00419378
0.00419394
0.00419407
0.00385039
0.00385686
0.00387076
0.00389629
0.00392622
0.00395476
0.00398711
0.0040242
0.00405703
0.004083
0.00410522
0.00412484
0.00414046
0.00415198
0.00416126
0.00416848
0.00417325
0.0041769
0.00417951
0.00418103
0.00418223
0.00418323
0.00418378
0.00418393
0.00418402
0.00418416
0.00418424
0.00418425
0.00418425
0.00418424
0.00418426
0.00418432
0.00418438
0.00418441
0.0041845
0.00418467
0.0041849
0.00418517
0.00418544
0.00418571
0.00418592
0.00418608
0.00383525
0.00384524
0.00386154
0.00388342
0.0039098
0.00393953
0.00397627
0.00401293
0.0040433
0.00406958
0.00409347
0.00411317
0.00412901
0.00414106
0.00415076
0.00415799
0.00416289
0.00416675
0.00416951
0.00417129
0.0041727
0.0041737
0.00417418
0.0041744
0.00417464
0.00417489
0.00417501
0.00417504
0.00417508
0.00417517
0.0041753
0.00417543
0.00417555
0.00417567
0.00417585
0.00417612
0.00417643
0.00417674
0.00417704
0.00417733
0.00417754
0.00417772
0.00382477
0.0038334
0.00384943
0.00386702
0.00389253
0.00392857
0.00396697
0.00399874
0.00402853
0.00405731
0.00408157
0.00410131
0.00411729
0.00412967
0.00413974
0.00414718
0.00415245
0.00415655
0.00415947
0.00416145
0.00416284
0.00416368
0.0041642
0.00416469
0.00416515
0.00416543
0.00416555
0.00416567
0.00416582
0.00416595
0.00416611
0.0041663
0.0041665
0.00416671
0.00416697
0.00416731
0.00416767
0.00416803
0.00416835
0.00416863
0.00416883
0.00416901
0.00381667
0.0038188
0.00383104
0.00385329
0.00388426
0.0039185
0.00395012
0.00398303
0.00401688
0.0040456
0.00406852
0.00408925
0.00410552
0.0041181
0.00412873
0.00413624
0.00414174
0.00414631
0.00414923
0.00415105
0.00415264
0.00415382
0.00415451
0.00415501
0.00415547
0.00415577
0.00415594
0.00415618
0.00415645
0.00415663
0.00415676
0.00415696
0.00415723
0.00415751
0.00415783
0.0041582
0.00415859
0.00415897
0.0041593
0.00415959
0.0041598
0.00415998
0.00379919
0.00380645
0.00382083
0.0038446
0.00387287
0.00390094
0.00393493
0.00397252
0.00400511
0.00403168
0.00405579
0.00407746
0.00409381
0.00410702
0.00411777
0.0041252
0.00413112
0.00413602
0.00413888
0.00414058
0.00414237
0.00414389
0.0041448
0.00414526
0.00414558
0.00414584
0.00414614
0.00414653
0.00414685
0.00414701
0.00414718
0.00414746
0.0041478
0.00414813
0.00414844
0.00414881
0.00414919
0.00414954
0.00414987
0.00415018
0.00415043
0.00415063
0.00378542
0.0037968
0.00381146
0.00383133
0.00385583
0.00388715
0.00392597
0.00396131
0.00398969
0.00401813
0.00404502
0.00406524
0.00408192
0.00409589
0.00410657
0.00411419
0.00412048
0.00412547
0.00412849
0.00413046
0.00413227
0.00413374
0.00413468
0.00413519
0.00413551
0.00413583
0.00413627
0.00413671
0.00413697
0.00413713
0.00413735
0.0041377
0.0041381
0.00413847
0.00413883
0.0041392
0.00413953
0.00413983
0.00414013
0.00414043
0.00414067
0.00414086
0.00377808
0.0037814
0.00379362
0.00381673
0.00384641
0.00387847
0.00391044
0.00394454
0.00397839
0.00400698
0.00403118
0.00405242
0.00406998
0.00408387
0.0040948
0.00410304
0.00410945
0.00411424
0.0041176
0.00412013
0.00412203
0.00412334
0.00412419
0.00412477
0.00412523
0.0041257
0.00412618
0.00412653
0.00412675
0.00412697
0.0041273
0.00412771
0.00412811
0.00412846
0.00412883
0.00412919
0.00412952
0.00412981
0.00413008
0.00413034
0.00413054
0.00413069
0.00376676
0.00376851
0.0037794
0.00380334
0.00383418
0.0038668
0.00389604
0.0039299
0.00396595
0.00399484
0.00401857
0.00404055
0.00405838
0.0040725
0.00408366
0.00409223
0.00409883
0.00410353
0.00410701
0.00410972
0.00411156
0.00411273
0.00411362
0.00411437
0.00411495
0.00411541
0.00411579
0.00411607
0.00411629
0.00411659
0.00411698
0.00411739
0.00411776
0.00411807
0.0041184
0.00411875
0.0041191
0.00411942
0.00411969
0.00411991
0.00412006
0.00412017
0.00375565
0.0037569
0.0037681
0.00378841
0.00381939
0.00385373
0.00388674
0.00391742
0.00395088
0.00398195
0.00400677
0.0040283
0.00404623
0.00406091
0.00407231
0.00408097
0.00408785
0.00409281
0.00409636
0.00409912
0.00410104
0.00410225
0.00410314
0.0041039
0.0041045
0.00410492
0.00410519
0.00410541
0.00410569
0.00410605
0.00410642
0.00410676
0.00410705
0.00410732
0.0041076
0.0041079
0.00410823
0.00410856
0.00410885
0.00410907
0.00410921
0.0041093
0.00373837
0.00374642
0.00376212
0.00377864
0.00380352
0.00383818
0.0038752
0.00390789
0.00393754
0.0039682
0.00399568
0.00401654
0.00403449
0.00404964
0.004061
0.00406984
0.0040769
0.00408198
0.00408559
0.0040883
0.00409027
0.00409167
0.00409268
0.00409341
0.00409394
0.00409431
0.00409454
0.00409473
0.004095
0.00409531
0.00409559
0.00409581
0.00409602
0.00409627
0.00409654
0.00409679
0.00409705
0.00409733
0.0040976
0.00409782
0.00409796
0.00409805
0.00373087
0.00373212
0.0037429
0.00376579
0.0037953
0.0038272
0.00385834
0.00389283
0.00392671
0.003956
0.00398177
0.00400384
0.00402255
0.00403788
0.0040494
0.0040589
0.00406611
0.0040709
0.00407474
0.00407769
0.00407955
0.00408089
0.00408197
0.00408271
0.00408315
0.00408347
0.00408375
0.00408398
0.00408422
0.00408443
0.00408455
0.00408463
0.00408478
0.00408501
0.00408526
0.00408545
0.00408561
0.00408581
0.00408602
0.00408619
0.00408629
0.00408638
0.00371608
0.00371955
0.00373053
0.00375502
0.00378399
0.00381132
0.00384325
0.00388019
0.00391409
0.00394226
0.00396827
0.00399151
0.00401035
0.00402588
0.00403737
0.00404716
0.00405478
0.0040594
0.0040634
0.00406667
0.00406843
0.00406967
0.00407093
0.00407181
0.00407212
0.00407233
0.00407268
0.00407299
0.00407312
0.00407314
0.00407315
0.00407321
0.00407337
0.00407357
0.00407371
0.00407379
0.00407388
0.00407402
0.00407415
0.00407423
0.00407427
0.00407434
0.00370028
0.00370927
0.0037224
0.00374199
0.0037662
0.00379554
0.00383279
0.00386936
0.00389874
0.0039273
0.00395556
0.00397848
0.00399751
0.00401344
0.00402538
0.00403544
0.00404275
0.00404758
0.00405221
0.00405556
0.00405703
0.00405839
0.0040598
0.00406061
0.00406081
0.00406103
0.00406142
0.00406169
0.0040617
0.00406158
0.0040615
0.00406157
0.00406175
0.00406186
0.00406186
0.00406183
0.00406185
0.00406194
0.00406199
0.00406199
0.00406198
0.00406202
0.00368794
0.00369608
0.00370892
0.00372902
0.00375504
0.0037828
0.0038183
0.00385444
0.00388508
0.00391479
0.00394261
0.00396523
0.00398517
0.00400105
0.00401345
0.00402375
0.00403052
0.00403578
0.00404085
0.00404412
0.00404538
0.00404701
0.00404847
0.00404908
0.00404929
0.00404967
0.00405001
0.00405008
0.00405002
0.0040499
0.00404979
0.00404979
0.00404984
0.00404982
0.0040497
0.00404958
0.00404955
0.00404956
0.00404954
0.00404948
0.00404945
0.00404946
0.00367471
0.00368297
0.00369712
0.00371688
0.00374278
0.0037688
0.00380204
0.00384069
0.0038745
0.00390158
0.00392774
0.00395218
0.00397228
0.00398779
0.00400104
0.00401152
0.00401802
0.004024
0.00402922
0.00403202
0.00403373
0.00403557
0.00403685
0.00403739
0.00403778
0.00403811
0.0040382
0.00403817
0.00403815
0.00403807
0.00403793
0.00403783
0.00403774
0.00403757
0.00403734
0.00403717
0.00403706
0.00403696
0.00403684
0.00403673
0.00403668
0.00403668
0.00366771
0.00366897
0.00367881
0.00370132
0.0037298
0.00376007
0.00378957
0.00382414
0.00385978
0.0038892
0.00391471
0.0039391
0.00395923
0.00397502
0.00398832
0.0039987
0.00400603
0.00401213
0.00401678
0.00401965
0.00402178
0.0040235
0.00402466
0.0040254
0.00402589
0.00402613
0.00402621
0.00402624
0.00402619
0.00402602
0.0040258
0.0040256
0.00402541
0.00402515
0.00402487
0.00402463
0.00402443
0.00402422
0.004024
0.00402382
0.00402372
0.00402368
0.00365178
0.00365639
0.00366994
0.00368685
0.00371181
0.00374514
0.00377939
0.00381174
0.00384305
0.00387442
0.00390241
0.0039254
0.00394529
0.00396172
0.00397509
0.00398547
0.00399316
0.00399951
0.00400415
0.00400708
0.00400939
0.00401131
0.00401254
0.00401313
0.00401342
0.00401364
0.0040138
0.00401385
0.00401377
0.00401361
0.00401339
0.00401314
0.00401287
0.00401256
0.00401225
0.00401194
0.00401163
0.00401133
0.00401103
0.00401079
0.00401062
0.00401051
0.00363622
0.00364366
0.00365821
0.00367379
0.00369714
0.0037304
0.00376564
0.00379691
0.00382808
0.0038603
0.00388831
0.00391089
0.00393158
0.00394823
0.00396121
0.00397217
0.00398015
0.00398607
0.00399092
0.00399429
0.00399654
0.00399833
0.00399965
0.00400038
0.00400068
0.00400085
0.00400099
0.00400103
0.00400095
0.00400082
0.00400064
0.00400041
0.00400009
0.00399971
0.00399935
0.00399899
0.00399862
0.00399826
0.00399793
0.00399765
0.00399744
0.00399728
0.00362563
0.00362781
0.00363821
0.00366051
0.0036873
0.00371688
0.00374575
0.00378061
0.00381679
0.00384574
0.0038712
0.00389615
0.00391761
0.00393349
0.0039465
0.00395798
0.00396678
0.00397247
0.00397702
0.00398089
0.00398343
0.00398505
0.00398634
0.00398725
0.00398766
0.00398779
0.00398793
0.00398802
0.00398791
0.00398772
0.00398755
0.00398735
0.00398702
0.00398659
0.00398618
0.00398581
0.00398543
0.00398504
0.00398469
0.00398439
0.00398415
0.00398396
0.00361215
0.00361395
0.00362365
0.00364587
0.00367268
0.00370044
0.00372953
0.00376507
0.00380195
0.00383015
0.00385536
0.00388103
0.00390238
0.00391844
0.00393225
0.00394361
0.00395263
0.00395865
0.003963
0.00396702
0.00396992
0.00397157
0.00397276
0.00397372
0.00397428
0.00397447
0.0039746
0.00397466
0.00397455
0.00397435
0.00397415
0.00397393
0.00397359
0.00397315
0.00397275
0.0039724
0.00397203
0.00397164
0.0039713
0.00397102
0.00397078
0.00397059
0.00359771
0.00359928
0.00360996
0.00363162
0.00365747
0.00368451
0.00371452
0.00375014
0.00378536
0.00381326
0.00383975
0.00386607
0.00388674
0.00390311
0.00391773
0.00392939
0.00393766
0.00394424
0.00394928
0.00395287
0.00395576
0.00395783
0.00395901
0.00395975
0.00396035
0.00396074
0.00396089
0.00396091
0.00396086
0.00396073
0.00396051
0.00396025
0.00395991
0.00395952
0.00395917
0.00395884
0.00395847
0.00395809
0.00395777
0.00395752
0.00395732
0.00395715
0.003585
0.00358548
0.00359445
0.00361116
0.00363818
0.00367239
0.00370479
0.00373261
0.00376412
0.00379719
0.00382564
0.00384942
0.00387022
0.00388797
0.00390283
0.00391394
0.00392237
0.00392975
0.003935
0.00393856
0.00394154
0.00394361
0.00394481
0.00394568
0.00394632
0.00394662
0.0039467
0.00394675
0.00394674
0.00394664
0.00394647
0.00394628
0.00394601
0.0039457
0.00394541
0.0039451
0.00394476
0.00394441
0.00394413
0.00394391
0.00394374
0.00394361
0.0035666
0.00356924
0.00358146
0.00359786
0.0036233
0.0036557
0.00368826
0.00371508
0.00374733
0.00378228
0.00381001
0.00383289
0.00385456
0.00387276
0.00388721
0.00389873
0.00390811
0.00391493
0.00391979
0.00392389
0.00392692
0.00392876
0.00393009
0.00393116
0.00393186
0.00393218
0.00393231
0.00393234
0.00393232
0.00393231
0.00393226
0.0039321
0.00393186
0.00393161
0.0039314
0.00393116
0.00393087
0.00393059
0.00393037
0.0039302
0.00393006
0.00392994
0.00355084
0.00355513
0.00356885
0.00358278
0.00360509
0.00363946
0.00367287
0.0037011
0.00373089
0.00376422
0.00379386
0.00381727
0.00383847
0.00385675
0.00387116
0.00388348
0.00389288
0.00389963
0.00390533
0.00390922
0.00391158
0.00391384
0.00391565
0.00391658
0.00391704
0.00391748
0.00391779
0.00391786
0.0039179
0.00391795
0.0039179
0.00391773
0.00391751
0.00391734
0.00391719
0.003917
0.00391677
0.00391656
0.00391641
0.00391631
0.0039162
0.0039161
0.00353616
0.00353917
0.00354917
0.00357019
0.00359578
0.00362365
0.00364995
0.0036824
0.00371813
0.00374901
0.00377564
0.0038007
0.00382264
0.00384062
0.00385573
0.00386829
0.00387653
0.00388349
0.00389029
0.00389436
0.00389624
0.00389874
0.00390082
0.00390153
0.00390188
0.00390257
0.00390307
0.00390318
0.00390328
0.00390337
0.0039033
0.00390315
0.00390305
0.00390295
0.00390281
0.00390264
0.00390247
0.00390234
0.00390226
0.00390219
0.00390211
0.00390206
0.00352326
0.00352418
0.00353197
0.00355557
0.00358245
0.00360607
0.00363135
0.00366708
0.00370269
0.00373114
0.00375828
0.00378396
0.00380638
0.00382441
0.0038399
0.0038522
0.00386038
0.00386856
0.00387508
0.00387813
0.00388068
0.0038836
0.00388552
0.00388599
0.00388672
0.00388756
0.00388799
0.00388819
0.0038883
0.00388827
0.00388823
0.00388832
0.00388842
0.00388837
0.00388822
0.0038881
0.00388804
0.00388799
0.00388792
0.00388784
0.00388777
0.00388776
0.00350491
0.00350981
0.00351939
0.00354107
0.0035661
0.00358575
0.00361562
0.00365405
0.00368477
0.00371279
0.003742
0.00376769
0.00378949
0.00380784
0.00382338
0.00383514
0.00384457
0.003853
0.00385857
0.00386216
0.00386548
0.00386798
0.00386947
0.00387054
0.0038714
0.00387205
0.00387257
0.00387293
0.00387297
0.00387288
0.00387302
0.00387332
0.00387346
0.0038734
0.00387333
0.00387333
0.00387337
0.00387338
0.00387332
0.00387325
0.00387324
0.00387327
0.00348445
0.00349633
0.00350934
0.00352549
0.00354347
0.00356737
0.00360425
0.00363919
0.00366543
0.00369521
0.00372606
0.00375095
0.00377253
0.0037911
0.00380608
0.00381903
0.00382884
0.00383585
0.00384223
0.00384687
0.00384927
0.0038515
0.00385375
0.00385519
0.00385579
0.00385627
0.00385684
0.00385726