/*--------------------------------*- C++ -*----------------------------------*\
| =========                 |                                                 |
| \\      /  F ield         | OpenFOAM: The Open Source CFD Toolbox           |
|  \\    /   O peration     | Version:  2412                                  |
|   \\  /    A nd           | Website:  www.openfoam.com                      |
|    \\/     M anipulation  |                                                 |
\*---------------------------------------------------------------------------*/
FoamFile
{
    version     2.0;
    format      ascii;
    arch        "LSB;label=32;scalar=64";
    class       volScalarField;
    location    "0.013";
    object      S_sat;
}
// * * * * * * * * * * * * * * * * * * * * * * * * * * * * * * * * * * * * * //

dimensions      [0 0 0 0 0 0 0];

internalField   nonuniform List<scalar> 
8988
(
1.75539
1.80322
1.86865
1.91461
1.94134
1.9562
1.96339
1.96763
1.9707
1.97286
1.97473
1.97612
1.97714
1.9777
1.97807
1.97832
1.97847
1.97859
1.97867
1.97873
1.97878
1.97882
1.97884
1.97887
1.9789
1.97896
1.97903
1.9791
1.97913
1.9792
1.97933
1.97952
1.97976
1.98002
1.98028
1.98053
1.98077
1.98101
1.98123
1.98142
1.98157
1.98164
1.50262
1.55645
1.65879
1.77296
1.85196
1.90186
1.93518
1.95214
1.95822
1.96392
1.96938
1.97193
1.97275
1.97303
1.97436
1.97563
1.97619
1.97658
1.97708
1.97759
1.978
1.97835
1.97876
1.97919
1.97965
1.98007
1.9805
1.981
1.98139
1.98177
1.98214
1.98255
1.983
1.9834
1.98375
1.9841
1.98443
1.98477
1.98508
1.98536
1.98558
1.98569
1.3402
1.39198
1.49698
1.63678
1.75796
1.83768
1.89329
1.93212
1.9501
1.95736
1.96561
1.97206
1.97462
1.97623
1.97825
1.97954
1.98028
1.9809
1.98144
1.98186
1.9822
1.98247
1.98274
1.98298
1.98321
1.98344
1.98361
1.98374
1.9838
1.98385
1.98393
1.98408
1.98429
1.98449
1.98469
1.98488
1.98509
1.98529
1.98547
1.98562
1.98576
1.98584
1.22592
1.26896
1.36634
1.51297
1.66023
1.76874
1.84365
1.89835
1.9335
1.94991
1.96099
1.97057
1.97641
1.98017
1.98279
1.98458
1.98592
1.98682
1.98732
1.98764
1.98784
1.98793
1.98797
1.98801
1.98805
1.98812
1.98816
1.98814
1.98803
1.98787
1.98764
1.98739
1.98712
1.98681
1.98648
1.98618
1.98592
1.98572
1.98557
1.98546
1.98541
1.98535
1.14107
1.17797
1.26858
1.40643
1.5644
1.70042
1.79136
1.85732
1.90807
1.93886
1.95543
1.96801
1.97757
1.98355
1.98731
1.9898
1.9916
1.99269
1.9933
1.99364
1.99377
1.9938
1.99375
1.99366
1.99357
1.99347
1.99333
1.9931
1.99281
1.99244
1.99199
1.9914
1.9907
1.98989
1.98903
1.98816
1.98736
1.98666
1.98608
1.98561
1.98527
1.98509
1.06679
1.10083
1.18789
1.3193
1.4753
1.62606
1.74075
1.81804
1.8777
1.92303
1.94951
1.96615
1.9785
1.98609
1.99177
1.99513
1.99678
1.99808
1.99933
1.99987
2
2.00003
2.00003
1.99994
1.99978
1.99957
1.9993
1.99894
1.99848
1.99795
1.9973
1.99648
1.99546
1.9943
1.99302
1.99166
1.99029
1.98897
1.98778
1.98678
1.98606
1.98562
1.00009
1.0325
1.11744
1.24446
1.39643
1.55244
1.68651
1.78251
1.84973
1.90381
1.94149
1.96439
1.97945
1.98809
1.99484
1.99988
2.00202
2.00341
2.00494
2.00598
2.00624
2.00629
2.00633
2.0063
2.00615
2.00588
2.00554
2.00511
2.00457
2.00392
2.00311
2.00211
2.00089
1.9995
1.99796
1.99628
1.9945
1.99268
1.99095
1.98943
1.9883
1.98758
1.00033
1
1.05163
1.17703
1.32823
1.48467
1.62897
1.74409
1.82451
1.88496
1.93024
1.96027
1.97946
1.9894
1.99687
2.00345
2.00688
2.00854
2.01
2.01161
2.01221
2.01231
2.01238
2.01245
2.01237
2.01211
2.01174
2.01129
2.01071
2.00999
2.00911
2.00802
2.00674
2.00528
2.00366
2.00186
1.99991
1.99787
1.99584
1.99399
1.99258
1.99159
1.00052
1.00056
1.00014
1.10926
1.26748
1.43052
1.57418
1.69798
1.79699
1.86906
1.91867
1.95307
1.9773
1.99127
1.9994
2.0063
2.01116
2.01349
2.0151
2.01693
2.01791
2.01818
2.01831
2.01843
2.01843
2.01825
2.01789
2.01743
2.01684
2.01611
2.01523
2.01417
2.01292
2.0115
2.0099
2.00815
2.00626
2.00428
2.00232
2.00053
1.99914
1.99807
1.00066
1.0001
1.00016
1.05129
1.20253
1.3732
1.53031
1.6592
1.76532
1.84879
1.90733
1.94539
1.97251
1.9916
2.0016
2.00814
2.01406
2.01797
2.02004
2.0216
2.02304
2.02376
2.024
2.02413
2.02423
2.02419
2.02395
2.02353
2.02298
2.02233
2.02156
2.02064
2.01955
2.01829
2.01688
2.01535
2.01373
2.01207
2.01047
2.00903
2.00795
2.00697
1.00099
1.00036
1.00003
1.00112
1.14821
1.31394
1.47998
1.62312
1.73627
1.82508
1.8927
1.93814
1.96738
1.98944
2.00346
2.01061
2.01644
2.02183
2.02476
2.0264
2.02794
2.02913
2.0296
2.02981
2.02998
2.03007
2.02999
2.0297
2.02927
2.02875
2.02815
2.02746
2.02665
2.02571
2.02466
2.02354
2.02239
2.02125
2.0202
2.01928
2.01862
2.01788
1.00126
1.00004
1.00023
1.0008
1.09928
1.26745
1.4303
1.5797
1.70653
1.80269
1.87524
1.92814
1.96203
1.98679
2.00378
2.01294
2.0199
2.0259
2.02921
2.0312
2.03309
2.0345
2.03514
2.03555
2.03591
2.03612
2.03618
2.03613
2.03592
2.0356
2.03524
2.03487
2.03445
2.03395
2.03341
2.03285
2.0323
2.03178
2.03134
2.03098
2.03073
2.03027
1.00178
1.00002
1.00019
1.00027
1.04693
1.21761
1.38775
1.53972
1.67207
1.77781
1.85726
1.9151
1.9552
1.98406
2.0027
2.01477
2.02395
2.03007
2.03385
2.0367
2.03887
2.04016
2.04101
2.04173
2.04226
2.04262
2.04288
2.04305
2.04311
2.04309
2.04308
2.04311
2.04316
2.04321
2.04325
2.04331
2.0434
2.04351
2.04364
2.04377
2.04386
2.0437
1.00135
1.00063
1.00083
1.00003
1.00056
1.17111
1.34551
1.4998
1.63604
1.75167
1.83793
1.90106
1.94799
1.98024
2.00168
2.0171
2.02764
2.03445
2.03928
2.04269
2.04484
2.04637
2.0476
2.04851
2.0492
2.04979
2.05032
2.05077
2.05115
2.0515
2.0519
2.05239
2.05295
2.05355
2.05418
2.05484
2.05552
2.05621
2.05686
2.05742
2.05779
2.05785
1.00217
1.00005
1.00019
1.00057
1.00088
1.12588
1.30088
1.46278
1.60567
1.72636
1.81889
1.88898
1.94091
1.97633
2.00174
2.01986
2.03152
2.03958
2.04536
2.04906
2.05155
2.05351
2.05502
2.05614
2.05706
2.05792
2.05873
2.05948
2.06021
2.06097
2.06181
2.06276
2.06381
2.06492
2.06608
2.06727
2.06847
2.06964
2.07072
2.07164
2.0723
2.07259
1.00166
1.00029
1.00035
1.00047
1.00053
1.08971
1.25933
1.42469
1.57605
1.70111
1.79976
1.87687
1.93315
1.97325
2.00257
2.0225
2.03599
2.0456
2.05198
2.05613
2.05919
2.06156
2.06335
2.06474
2.06596
2.0671
2.06819
2.06927
2.0704
2.07159
2.07285
2.0742
2.07565
2.0772
2.07881
2.08045
2.08207
2.08362
2.08504
2.08628
2.08721
2.08775
1.0006
1.0011
1.00004
1.00065
1.0007
1.05215
1.22588
1.39119
1.5447
1.6774
1.78296
1.86527
1.92661
1.97179
2.00396
2.02605
2.04169
2.05233
2.05927
2.06412
2.06776
2.07056
2.07265
2.07438
2.07592
2.07735
2.07876
2.08018
2.08165
2.0832
2.08485
2.08658
2.08839
2.0903
2.09227
2.09426
2.0962
2.09804
2.09973
2.10121
2.10234
2.10307
1.00125
1.00039
1.00025
1.00062
1.00139
1.0153
1.18865
1.36135
1.51797
1.6543
1.76711
1.85488
1.92165
1.97112
2.00616
2.03116
2.04859
2.0601
2.06799
2.07354
2.07762
2.08084
2.08329
2.08533
2.08713
2.08883
2.09056
2.0923
2.09405
2.09585
2.09775
2.09974
2.10184
2.10403
2.10629
2.10855
2.11075
2.11283
2.11474
2.11639
2.11762
2.11843
1.00009
1.00052
1.00004
1.00027
1.00084
1.00009
1.15965
1.3304
1.49147
1.63496
1.75274
1.8462
1.91845
1.97159
2.01022
2.03802
2.05689
2.06969
2.07866
2.08473
2.08923
2.0929
2.09566
2.09789
2.09981
2.10167
2.10355
2.10545
2.10737
2.10937
2.11146
2.11367
2.116
2.11843
2.12089
2.12333
2.12573
2.12801
2.13007
2.13181
2.13305
2.1339
1.00028
1.00008
1.00027
1.00029
1.00106
1.00007
1.13076
1.305
1.46642
1.61523
1.73928
1.83853
1.91561
1.97245
2.01496
2.04527
2.06593
2.08047
2.09037
2.09699
2.10207
2.10622
2.10933
2.11177
2.11389
2.11594
2.11793
2.11988
2.12186
2.12392
2.1261
2.12841
2.13088
2.13346
2.13606
2.13864
2.14118
2.14357
2.1457
2.14747
2.14871
2.14957
1.00119
1.00009
1.0009
1.00045
1.00011
1.00019
1.09955
1.27903
1.44637
1.59587
1.72559
1.83163
1.91321
1.97443
2.0208
2.05378
2.07664
2.09258
2.10341
2.11098
2.11644
2.1207
2.12414
2.12678
2.12908
2.13119
2.13315
2.13511
2.13719
2.13937
2.14164
2.14403
2.14656
2.14919
2.15186
2.15453
2.15714
2.15959
2.16174
2.16349
2.16471
2.16559
1.00054
1.00076
1.00101
1.00091
1.00089
1.00004
1.07385
1.25055
1.42518
1.57985
1.71325
1.82466
1.91095
1.97731
2.02721
2.06295
2.08796
2.10505
2.11719
2.12597
2.13181
2.1362
2.13996
2.14295
2.14544
2.14754
2.14944
2.15141
2.15354
2.15577
2.15809
2.16052
2.16307
2.16573
2.16843
2.17112
2.17371
2.17612
2.17822
2.17995
2.18116
2.18205
1.00073
1.00004
1.00032
1.00019
1.00063
1.00042
1.05243
1.2262
1.40135
1.56238
1.70101
1.8169
1.90902
1.98071
2.03374
2.07257
2.10005
2.11868
2.1322
2.14183
2.14813
2.15293
2.1571
2.16032
2.16285
2.16489
2.1668
2.1688
2.17093
2.17316
2.17547
2.17787
2.18037
2.18299
2.18571
2.1884
2.19094
2.19326
2.1953
2.197
2.19823
2.19911
1.0015
1.00046
1.00003
1.00039
1.00184
1.00045
1.0283
1.20167
1.3796
1.54618
1.68881
1.80979
1.90812
1.98412
2.04125
2.08356
2.11315
2.13397
2.14903
2.15906
2.16585
2.17123
2.17566
2.17895
2.18136
2.18338
2.18532
2.18729
2.1893
2.19142
2.19368
2.19603
2.19848
2.20105
2.20369
2.20632
2.20882
2.21111
2.21315
2.21485
2.21609
2.21695
1.00132
1.00067
1.00042
1.00015
1.00119
1.00077
1.0075
1.18243
1.361
1.53059
1.67957
1.80564
1.90851
1.98898
2.05076
2.09544
2.12717
2.15069
2.16665
2.17685
2.18438
2.19043
2.19504
2.19848
2.20097
2.20314
2.20515
2.20699
2.20882
2.21076
2.21285
2.21505
2.21738
2.21984
2.22239
2.22495
2.22741
2.22973
2.23182
2.23359
2.23486
2.2357
1.00183
1.00037
1.00007
1.00006
1.00122
1.00088
1.00003
1.16567
1.34517
1.51463
1.6698
1.80211
1.90874
1.99453
2.06095
2.10755
2.14231
2.16865
2.18532
2.19626
2.20496
2.21154
2.21596
2.21927
2.22193
2.22411
2.22593
2.22757
2.22928
2.2311
2.23298
2.235
2.23719
2.23951
2.24192
2.2444
2.24687
2.24925
2.25142
2.25324
2.25456
2.25542
1.00024
1.00002
1.00041
1.00039
1.00041
1.00054
1.00036
1.1468
1.32718
1.50414
1.66316
1.80007
1.91167
2.00232
2.07217
2.12205
2.16024
2.18753
2.20459
2.21684
2.22665
2.23307
2.23741
2.24102
2.24403
2.24624
2.24778
2.24917
2.25077
2.25247
2.25416
2.25601
2.25804
2.26019
2.26244
2.26482
2.26728
2.26971
2.27194
2.27383
2.27524
2.27618
1.0016
1.0003
1.00055
1.00024
1.00041
1.00044
1.00025
1.13168
1.3134
1.49095
1.65546
1.79734
1.91376
2.00936
2.08224
2.136
2.17747
2.20586
2.2246
2.23888
2.24917
2.25538
2.25979
2.26377
2.26694
2.26908
2.27053
2.27188
2.27336
2.27484
2.27634
2.27803
2.27991
2.2819
2.28399
2.28625
2.28868
2.29113
2.29341
2.29539
2.29692
2.298
1.00112
1.00024
1.00048
1.00023
1.00061
1.00117
1.00038
1.11362
1.30121
1.48019
1.64815
1.79569
1.91813
2.01821
2.09448
2.15238
2.19611
2.22584
2.24665
2.26219
2.27252
2.27913
2.284
2.28796
2.29092
2.29296
2.29442
2.29579
2.29714
2.29842
2.29974
2.30124
2.30291
2.30473
2.30669
2.30882
2.31113
2.31353
2.31585
2.31791
2.31956
2.32075
1.0014
1.00042
1.00018
1.00095
1.00043
1.00008
1.00056
1.0977
1.28729
1.47168
1.64218
1.79375
1.92196
2.02591
2.10621
2.16826
2.21431
2.24629
2.26895
2.28508
2.29615
2.3039
2.30948
2.31336
2.31624
2.31845
2.32001
2.32127
2.32238
2.32348
2.32464
2.3259
2.32729
2.32886
2.33064
2.33264
2.3348
2.33704
2.33925
2.34132
2.34299
2.34422
1.00068
1.00018
1.00008
1.00123
1.00007
1.00092
1.00071
1.08421
1.27526
1.46316
1.63738
1.79274
1.92589
2.03406
2.11907
2.18501
2.23319
2.26753
2.29218
2.3094
2.32137
2.32979
2.33561
2.33973
2.34298
2.34542
2.347
2.34803
2.34891
2.34992
2.35105
2.35224
2.35344
2.35469
2.35614
2.35786
2.35978
2.36173
2.36367
2.36552
2.36706
2.36819
1.00045
1.00051
1.00007
1.00095
1.00017
1.00107
1.0001
1.0737
1.26588
1.45393
1.6321
1.79257
1.92992
2.04283
2.1327
2.20186
2.2533
2.29065
2.31672
2.33494
2.34806
2.35709
2.36298
2.3674
2.37118
2.37386
2.37549
2.37644
2.37715
2.37795
2.37897
2.38011
2.38121
2.38222
2.38329
2.38459
2.38611
2.38768
2.38918
2.3906
2.3918
2.39268
1.00036
1.0005
1.00009
1.00019
1.0012
1.00163
1.00025
1.05999
1.25321
1.44615
1.62697
1.79187
1.93444
2.05205
2.14591
2.21881
2.27359
2.31333
2.34186
2.36224
2.37617
2.3854
2.39182
2.39668
2.40049
2.40328
2.40519
2.40647
2.40729
2.40793
2.40865
2.40951
2.41039
2.4112
2.41198
2.41284
2.41383
2.41487
2.41583
2.41668
2.41737
2.41788
1.00115
1.00025
1.00037
1.00059
1.00034
1.00193
1.0003
1.05176
1.24386
1.43678
1.6235
1.79313
1.94023
2.06331
2.16111
2.23795
2.29611
2.33766
2.3682
2.39035
2.40492
2.41468
2.4221
2.42766
2.43121
2.43374
2.43591
2.4375
2.43853
2.4392
2.4398
2.44038
2.44091
2.44145
2.44198
2.44244
2.44285
2.44325
2.4436
2.44386
2.44402
2.44411
1.00073
1.00032
1.00009
1.00121
1.00034
1.00052
1.00016
1.04197
1.23509
1.42835
1.61949
1.79415
1.9464
2.0742
2.17657
2.25777
2.31894
2.36317
2.39619
2.41977
2.4353
2.44595
2.45389
2.45949
2.46313
2.46596
2.46837
2.47
2.47099
2.47166
2.47221
2.47259
2.4728
2.47301
2.47324
2.4733
2.47317
2.47294
2.4727
2.47239
2.47207
2.4718
1.00006
1.00032
1.00012
1.00169
1.00003
1.00086
1.00043
1.03282
1.22404
1.4216
1.61731
1.79628
1.95346
2.08638
2.19348
2.27789
2.34243
2.38961
2.42451
2.4502
2.46769
2.47918
2.48711
2.49289
2.49705
2.50009
2.50236
2.50387
2.50473
2.50531
2.50571
2.50581
2.50568
2.50563
2.50557
2.50523
2.50462
2.50387
2.50309
2.50231
2.50168
2.50116
1.00122
1.00052
1.00135
1.00167
1.00013
1.00227
1.00189
1.02244
1.21231
1.41571
1.61647
1.79895
1.96014
2.09928
2.21172
2.29923
2.36805
2.41875
2.45534
2.48247
2.50091
2.51283
2.52136
2.52812
2.53289
2.53585
2.53786
2.53929
2.54007
2.54032
2.54029
2.53998
2.53962
2.53933
2.53887
2.53813
2.53715
2.5361
2.53501
2.53395
2.53314
2.53248
1.00105
1.00034
1.00199
1.00104
1.00065
1.00027
1.00031
1.01113
1.20683
1.41422
1.61546
1.80276
1.96984
2.1138
2.23061
2.32315
2.39598
2.44939
2.48811
2.51634
2.53541
2.54829
2.55789
2.56504
2.56959
2.5724
2.57446
2.57589
2.57648
2.57652
2.57616
2.57551
2.57491
2.57428
2.57342
2.57227
2.57097
2.5697
2.56847
2.56735
2.56652
2.56579
1.0004
1.00025
1.00036
1.0001
1.00035
1.00027
1.00136
1.00555
1.20562
1.41174
1.61521
1.80806
1.98103
2.13033
2.25175
2.34879
2.4247
2.4807
2.5216
2.55111
2.57176
2.58642
2.59677
2.60341
2.60746
2.61037
2.61262
2.61373
2.61398
2.61388
2.61346
2.61266
2.61171
2.61069
2.60948
2.60804
2.60648
2.605
2.60368
2.60256
2.60176
2.60103
1.0008
1.0009
1.00015
1.00018
1.00073
1.00088
1.00037
1.00601
1.20117
1.40761
1.61881
1.8151
1.99294
2.14802
2.2734
2.37531
2.45496
2.51261
2.55607
2.58847
2.61011
2.62469
2.63521
2.64241
2.64691
2.64998
2.65201
2.65266
2.65249
2.65224
2.65201
2.65132
2.65011
2.64873
2.64728
2.64565
2.64395
2.64237
2.64099
2.63981
2.63894
2.63818
1.00002
1.00005
1.00084
1.00036
1.00148
1.00017
1.0007
1.00105
1.19454
1.40817
1.62265
1.82115
2.00455
2.16395
2.29467
2.40233
2.48516
2.545
2.59149
2.62675
2.64938
2.66393
2.67447
2.68248
2.68801
2.69139
2.6929
2.69299
2.69263
2.69252
2.69235
2.6914
2.68981
2.68826
2.68675
2.6851
2.68344
2.68192
2.68053
2.67922
2.67819
2.67736
1.00158
1.00168
1.00046
1.00062
1.00007
1.00004
1.00089
1.00013
1.19487
1.40987
1.62088
1.82718
2.01668
2.17969
2.31648
2.42916
2.51521
2.57865
2.62779
2.66438
2.68866
2.7047
2.71608
2.72456
2.73047
2.73377
2.73487
2.73482
2.73473
2.73491
2.73462
2.7333
2.73144
2.72967
2.72795
2.72625
2.72475
2.72343
2.72215
2.72086
2.71982
2.71901
1.00266
1.00042
1.00036
1.00021
1.00255
1.00006
1.00008
1.00001
1.19219
1.40655
1.62694
1.8376
2.02985
2.19888
2.34102
2.45693
2.54712
2.61547
2.66672
2.70344
2.72897
2.74696
2.7598
2.76876
2.77448
2.77746
2.77853
2.77895
2.77932
2.77946
2.77873
2.77702
2.77514
2.77339
2.77162
2.76988
2.76837
2.76707
2.76588
2.76477
2.76389
2.76323
1.00022
1.0015
1.00039
1.0002
1.00273
1.00013
1.00008
1.00005
1.19004
1.40551
1.63085
1.84503
2.04187
2.21629
2.36362
2.48376
2.57789
2.65063
2.70468
2.74307
2.77073
2.79079
2.8046
2.8136
2.81927
2.82257
2.82423
2.82518
2.82577
2.82581
2.82484
2.82307
2.8213
2.81969
2.81806
2.81636
2.81472
2.81325
2.81202
2.81104
2.81036
2.80989
1.00312
1.00035
1.00103
1.00005
1.00006
1.00077
1.00002
1.00008
1.1929
1.40833
1.63417
1.85385
2.05663
2.23529
2.38751
2.51284
2.61075
2.68645
2.74346
2.78419
2.81347
2.83486
2.84975
2.85945
2.86558
2.86945
2.87182
2.87313
2.87371
2.87367
2.87284
2.87147
2.87003
2.86862
2.86714
2.8656
2.86402
2.8625
2.86117
2.86016
2.85953
2.85912
1.00382
1.00105
1.00219
1.001
1.00051
1.00084
1.00023
1.00013
1.19171
1.41268
1.6359
1.86088
2.0699
2.25311
2.41143
2.54189
2.64396
2.72321
2.78328
2.82691
2.85811
2.88022
2.89566
2.90627
2.9133
2.9178
2.92072
2.92241
2.9231
2.92318
2.92293
2.9224
2.92143
2.92003
2.91851
2.91713
2.91585
2.91451
2.91322
2.91222
2.91159
2.91114
1.00153
1.00008
1.00018
1.00054
1
1.00198
1.0001
1.00045
1.18669
1.40967
1.64178
1.87012
2.08272
2.27192
2.43656
2.57037
2.67661
2.76133
2.824
2.86922
2.90302
2.92727
2.9437
2.95511
2.96318
2.96838
2.97149
2.97328
2.97419
2.97468
2.97509
2.97534
2.97491
2.97356
2.97204
2.97094
2.97006
2.96907
2.96804
2.96725
2.96678
2.96636
1.00121
1.00022
1.00079
1.00289
1.00105
1.00206
1.00083
1.00084
1.18197
1.40879
1.64599
1.87687
2.09561
2.29155
2.46333
2.60248
2.71234
2.80201
2.86774
2.91432
2.95074
2.97744
2.99451
3.00621
3.01543
3.02171
3.02488
3.02654
3.02798
3.02936
3.0303
3.03073
3.03033
3.02914
3.02808
3.02745
3.02689
3.02619
3.02554
3.02515
3.02498
3.02469
1.00011
1.00072
1
1.00055
1.00044
1.00159
1.00072
1.00043
1.18197
1.41387
1.65008
1.88613
2.11152
2.31354
2.49086
2.63506
2.75184
2.8459
2.91227
2.96118
3.00134
3.02952
3.04728
3.0601
3.07057
3.07726
3.08048
3.08243
3.08461
3.08677
3.08807
3.08845
3.08794
3.08719
3.08697
3.08687
3.08658
3.08612
3.08583
3.08583
3.08593
3.08577
1.001
1.00065
1.00067
1.00054
1.00009
1.00126
1.00226
1.00009
1.18472
1.4161
1.65591
1.89915
2.12826
2.33696
2.51991
2.66935
2.7939
2.89141
2.9592
3.01108
3.0549
3.08357
3.10216
3.11679
3.12803
3.13432
3.13789
3.141
3.14387
3.14609
3.14764
3.14825
3.14828
3.14838
3.14877
3.1491
3.1491
3.149
3.14911
3.1494
3.14962
3.14956
1.00241
1.00023
1.00001
1.00038
1.00091
1.00211
1.00072
1.00004
1.18385
1.42069
1.67065
1.91571
2.14942
2.36623
2.55256
2.70707
2.83843
2.93745
3.00836
3.06551
3.11031
3.13953
3.16006
3.17605
3.18694
3.19365
3.19863
3.20247
3.20519
3.20743
3.20928
3.21057
3.21141
3.21223
3.21312
3.21379
3.21418
3.21461
3.21523
3.21582
3.21613
3.21614
1.0004
1.00014
1.00168
1.00369
1.00093
1.00106
1.00046
1.00031
1.19334
1.42843
1.68274
1.93323
2.17251
2.39453
2.58652
2.74761
2.8815
2.9845
3.0625
3.12361
3.16863
3.20005
3.22242
3.23825
3.24896
3.2564
3.26176
3.26556
3.26861
3.27139
3.27385
3.27573
3.27713
3.27844
3.2797
3.28071
3.28161
3.28265
3.28383
3.28483
3.28539
3.28562
1.00002
1.00038
1.00081
1.00163
1.00212
1.00004
1.00009
1.00011
1.20565
1.44364
1.6943
1.95185
2.19888
2.42496
2.62287
2.79058
2.92907
3.03611
3.11855
3.18306
3.2298
3.262
3.2852
3.30269
3.31523
3.32337
3.32852
3.33249
3.33601
3.33893
3.34152
3.34373
3.34562
3.34732
3.34883
3.35025
3.35172
3.35331
3.35492
3.3563
3.35725
3.35787
1.0003
1.00019
1.00025
1.00248
1.00006
1.00008
1.00153
1.00026
1.2141
1.45317
1.70756
1.97208
2.22305
2.45466
2.66148
2.83378
2.97676
3.09149
3.1779
3.24385
3.29367
3.32876
3.35321
3.37109
3.38438
3.3934
3.3991
3.40343
3.40723
3.41026
3.41279
3.41504
3.41725
3.4194
3.4213
3.42304
3.42487
3.4268
3.42865
3.43022
3.43143
3.43235
1.00146
1.00018
1.00083
1.00009
1.00327
1.0009
1.00023
1.00361
1.21365
1.45734
1.72463
1.99132
2.24497
2.48717
2.70263
2.88047
3.02614
3.14744
3.24081
3.30848
3.35981
3.39837
3.42501
3.44325
3.45676
3.46667
3.47288
3.47736
3.48158
3.48515
3.48792
3.49016
3.49247
3.49499
3.49723
3.4991
3.501
3.5031
3.50515
3.50689
3.50831
3.50942
1.00204
1.0009
1.00243
1.00012
1.00155
1.00139
1.00003
1.00748
1.21658
1.46285
1.73664
2.00777
2.26875
2.51941
2.74042
2.92702
3.07937
3.2056
3.30554
3.37692
3.4298
3.4708
3.50006
3.5196
3.5333
3.54347
3.55029
3.55533
3.55992
3.56379
3.56687
3.56935
3.57186
3.57453
3.57678
3.57859
3.58047
3.58259
3.58459
3.58628
3.58774
3.5889
1.00004
1.00036
1.0031
1.00033
1.0007
1.00047
1.00057
1.00954
1.22201
1.47325
1.74797
2.02266
2.29403
2.55344
2.78019
2.97348
3.13786
3.269
3.37065
3.44886
3.50568
3.54695
3.57809
3.60051
3.61516
3.62489
3.63208
3.63773
3.64236
3.64621
3.64947
3.65228
3.65494
3.65743
3.65944
3.66116
3.66309
3.66522
3.66709
3.66862
3.66992
3.67095
1.00029
1.0001
1.00013
1.00227
1.00058
1.00041
1.00157
1.01215
1.2379
1.48701
1.75795
2.04433
2.32616
2.58928
2.82321
3.02831
3.20104
3.33492
3.44087
3.52413
3.5841
3.62815
3.66143
3.68461
3.69996
3.71098
3.71929
3.7251
3.72972
3.73372
3.73693
3.73949
3.74176
3.74382
3.74554
3.74715
3.749
3.75095
3.75263
3.754
3.75509
3.75593
1.00197
1.00183
1.00064
1.00041
1.00093
1.00051
1.00064
1.02234
1.24962
1.49604
1.7731
2.07
2.35785
2.62734
2.87247
3.08534
3.26087
3.40447
3.51931
3.60447
3.66765
3.71609
3.75085
3.77418
3.79021
3.80193
3.81047
3.81679
3.82162
3.82528
3.82816
3.83055
3.83274
3.83449
3.83576
3.83698
3.83849
3.84008
3.84141
3.8425
3.8434
3.84415
1.0007
1.00111
1.00009
1.00159
1.0006
1.00039
1.00063
1.0263
1.26025
1.51701
1.79494
2.09569
2.39316
2.67216
2.92745
3.14558
3.329
3.48087
3.59677
3.68726
3.75851
3.8076
3.84123
3.86665
3.88545
3.89729
3.9051
3.91151
3.91641
3.91992
3.92292
3.92551
3.92761
3.929
3.92992
3.93083
3.93201
3.93319
3.93404
3.93471
3.93543
3.93608
1.0018
1.00126
1.0003
1.00097
1.00068
1.00143
1.00206
1.0453
1.26791
1.52857
1.82261
2.12831
2.43074
2.72064
2.98335
3.20897
3.4071
3.56641
3.68121
3.77464
3.85287
3.90324
3.93681
3.96447
3.98535
3.99649
4.00367
4.01036
4.01516
4.01866
4.02205
4.02468
4.02627
4.02723
4.02806
4.02888
4.02968
4.03034
4.03076
4.03118
4.03172
4.03212
1.00081
1.00014
1.00271
1.00306
1.00382
1.00029
1.0004
1.05705
1.27906
1.54913
1.85149
2.16346
2.47327
2.77291
3.04358
3.27998
3.48766
3.64655
3.76813
3.87228
3.95149
4.00174
4.03802
4.06967
4.08933
4.10026
4.10833
4.11492
4.11986
4.12423
4.12729
4.12852
4.12898
4.12972
4.13061
4.13116
4.1313
4.13136
4.13164
4.13221
4.13266
4.13274
1.0003
1.00035
1.0043
1.00126
1.00162
1.00163
1.0007
1.06533
1.29636
1.57744
1.88129
2.19879
2.52032
2.82882
3.10813
3.35694
3.5671
3.7305
3.86466
3.97319
4.05074
4.10685
4.1492
4.17916
4.19878
4.21158
4.21963
4.22507
4.23056
4.23526
4.23711
4.23714
4.23714
4.23799
4.23857
4.23836
4.23775
4.23737
4.23757
4.23806
4.23815
4.23791
1.00224
1.00069
1.00325
1.00038
1.00551
1.00096
1.00054
1.07603
1.32193
1.60654
1.91084
2.23724
2.56938
2.88656
3.17921
3.43171
3.64722
3.82808
3.9652
4.07143
4.15889
4.22123
4.26138
4.29008
4.31275
4.32792
4.33635
4.34181
4.34661
4.34992
4.3512
4.35146
4.3516
4.35179
4.35145
4.35036
4.34928
4.34891
4.34908
4.3492
4.34884
4.34841
1.00064
1.00032
1.00019
1.00086
1.00101
1.00021
1.00361
1.0959
1.34264
1.63348
1.94529
2.27786
2.62046
2.94767
3.24934
3.51123
3.74164
3.9308
4.06568
4.17674
4.27259
4.33653
4.37762
4.40867
4.43347
4.44948
4.45849
4.46356
4.46657
4.4688
4.47082
4.47197
4.47195
4.47096
4.46945
4.46786
4.46656
4.46598
4.46584
4.46557
4.46509
4.46486
1.00364
1.002
1.00232
1.00166
1.00036
1.00057
1.00091
1.11354
1.36329
1.65972
1.97834
2.31976
2.67229
3.01015
3.3205
3.59354
3.83751
4.03018
4.16761
4.28775
4.38868
4.45364
4.49838
4.53407
4.56045
4.57647
4.58561
4.59043
4.59261
4.59435
4.59666
4.59815
4.59746
4.59517
4.59329
4.59202
4.59069
4.58928
4.58807
4.58719
4.58687
4.58706
1.00097
1.0013
1.00063
1.00174
1.00031
1.00124
1.00416
1.12822
1.38936
1.69076
2.01043
2.36048
2.72799
3.07643
3.39788
3.68194
3.93144
4.12896
4.28102
4.41108
4.51073
4.57735
4.62657
4.66509
4.69163
4.70786
4.71731
4.72229
4.72478
4.72717
4.72953
4.73031
4.72853
4.72563
4.72405
4.723
4.7213
4.71891
4.71653
4.71493
4.71443
4.71459
1.00197
1.00007
1.00228
1.00459
1.00108
1.00047
1.00019
1.15861
1.40959
1.70934
2.04762
2.41077
2.78084
3.14292
3.4756
3.76915
4.02678
4.2351
4.40109
4.53554
4.63674
4.71095
4.76525
4.80304
4.82867
4.84597
4.85651
4.86157
4.86417
4.86695
4.86907
4.8689
4.8665
4.86389
4.86225
4.8605
4.85786
4.85455
4.85149
4.84956
4.84882
4.84845
1.00086
1.00021
1.0014
1.00269
1.00202
1.00016
1.0004
1.18007
1.4269
1.73272
2.0862
2.45638
2.83393
3.21085
3.55149
3.8591
4.13415
4.35112
4.52244
4.66089
4.7687
4.85089
4.90729
4.94366
4.96924
4.98866
5.00127
5.00772
5.01175
5.01469
5.01521
5.01359
5.01145
5.00989
5.00788
5.0049
5.00117
4.99719
4.99385
4.99179
4.99071
4.98966
1.00097
1.00026
1.00211
1.00361
1.00224
1.00153
1.0004
1.19116
1.44153
1.76365
2.12262
2.49665
2.88698
3.27299
3.62871
3.95568
4.23583
4.46728
4.65544
4.79479
4.90564
4.99591
5.05353
5.09023
5.11835
5.14035
5.15301
5.1599
5.16496
5.16778
5.16701
5.16502
5.16457
5.16386
5.16102
5.15665
5.15199
5.1476
5.14417
5.14188
5.1401
5.13828
1.0011
1.00263
1.00277
1.00024
1.00044
1.00145
1.00368
1.21484
1.47078
1.78704
2.15133
2.54172
2.94263
3.33996
3.71671
4.05393
4.34134
4.59153
4.78534
4.92834
5.05016
5.14362
5.20195
5.24372
5.27778
5.30025
5.31242
5.32024
5.32566
5.32705
5.3257
5.32456
5.32491
5.32386
5.32026
5.31555
5.3108
5.30642
5.30301
5.30035
5.29772
5.29531
1.00511
1.00156
1.00233
1.00052
1.00201
1.00317
1.00753
1.23261
1.49966
1.81117
2.17848
2.5859
3.00105
3.41445
3.80623
4.15224
4.45931
4.7185
4.91372
5.07367
5.20441
5.29438
5.35887
5.40949
5.44442
5.46559
5.47898
5.48812
5.49265
5.49364
5.49349
5.49365
5.49347
5.4914
5.48747
5.48284
5.47808
5.47376
5.47033
5.46721
5.46412
5.46183
1.00138
1.00087
1.00104
1.00077
1.00004
1.00133
1.02334
1.25385
1.51951
1.83421
2.21563
2.63395
3.06122
3.49129
3.89418
4.2584
4.58517
4.84307
5.05246
5.23306
5.36074
5.45005
5.52531
5.58198
5.61602
5.63801
5.65439
5.66389
5.66751
5.66932
5.67086
5.67153
5.6705
5.66765
5.66384
5.65942
5.65464
5.65016
5.64626
5.64249
5.63939
5.63772
1.00191
1.00151
1.00057
1.00216
1.00087
1.00004
1.04577
1.27618
1.54126
1.86542
2.26044
2.68467
3.12508
3.57314
3.98957
4.37689
4.71217
4.97272
5.2046
5.39631
5.52104
5.61762
5.70319
5.76005
5.79505
5.82001
5.83825
5.84757
5.8516
5.85423
5.85611
5.85692
5.85623
5.85353
5.8495
5.84505
5.84059
5.83609
5.83148
5.82716
5.82438
5.82316
1.0023
1.00069
1.00013
1.00196
1.00241
1.0008
1.07066
1.3005
1.56998
1.90863
2.30794
2.7374
3.19627
3.66056
4.09359
4.49543
4.8381
5.11735
5.36489
5.55961
5.69268
5.79992
5.88874
5.94696
5.98433
6.01111
6.03039
6.04102
6.04562
6.04787
6.04959
6.05079
6.05073
6.0485
6.0445
6.04024
6.03612
6.03149
6.02632
6.02201
6.01981
6.01869
1.00166
1.00026
1.00056
1.00033
1.00029
1.00022
1.09839
1.32768
1.60106
1.95068
2.35621
2.79627
3.27562
3.75483
4.20086
4.61519
4.98055
5.27214
5.52342
5.73268
5.87753
5.98831
6.08123
6.14411
6.18336
6.21095
6.23186
6.24313
6.24756
6.25069
6.25418
6.25603
6.25538
6.25246
6.24869
6.24487
6.24096
6.23652
6.23182
6.2282
6.22646
6.22515
1.00003
1.00088
1.00105
1.00068
1.0029
1.00246
1.12712
1.35187
1.63063
1.99492
2.40982
2.86254
3.35974
3.85162
4.31298
4.74619
5.12423
5.43369
5.70102
5.91214
6.06552
6.19056
6.28651
6.34877
6.39188
6.42442
6.44474
6.45358
6.45778
6.46293
6.46741
6.46879
6.46824
6.467
6.46485
6.46064
6.45559
6.45137
6.44817
6.44587
6.44454
6.44304
1.00323
1.00057
1.00196
1.00253
1.00072
1.00019
1.15271
1.37028
1.66962
2.046
2.46447
2.93267
3.44483
3.94772
4.43609
4.88676
5.27534
5.60852
5.88259
6.09698
6.27226
6.40596
6.49561
6.56135
6.61335
6.64746
6.66561
6.67585
6.68399
6.68943
6.69118
6.69107
6.69102
6.69155
6.69057
6.68672
6.68206
6.67876
6.67663
6.67507
6.67393
6.67234
1.00132
1.00066
1.00125
1.00125
1.00072
1.00031
1.16771
1.40457
1.72461
2.092
2.51986
3.01297
3.53231
4.05469
4.56872
5.0302
5.43661
5.7933
6.0726
6.29742
6.48835
6.62327
6.71335
6.78541
6.84298
6.87665
6.89457
6.90716
6.9185
6.92443
6.92618
6.92707
6.92832
6.92851
6.92633
6.923
6.92065
6.91908
6.9175
6.91607
6.91498
6.91354
1.00129
1.0003
1.00022
1.004
1.00056
1.00766
1.19024
1.45476
1.77351
2.13788
2.58454
3.09488
3.62514
4.17368
4.69842
5.1778
5.61165
5.97803
6.27259
6.51332
6.70756
6.84968
6.94947
7.02454
7.08035
7.11666
7.13825
7.15243
7.16319
7.16945
7.17241
7.17466
7.17662
7.17658
7.17448
7.17265
7.17216
7.17167
7.17056
7.16932
7.16826
7.16711
1.00003
1.00001
1.00247
1.00225
1.00601
1.02622
1.22609
1.49918
1.81099
2.18801
2.65429
3.17286
3.72276
4.29343
4.83274
5.34239
5.79402
6.16279
6.48165
6.73869
6.93473
7.08777
7.19576
7.27146
7.32953
7.37141
7.39675
7.41246
7.42381
7.43002
7.43241
7.43452
7.43686
7.43741
7.43673
7.43632
7.43641
7.43621
7.43554
7.43473
7.43394
7.43311
1.0008
1.00049
1.00282
1.00047
1.00121
1.05373
1.27013
1.53357
1.84216
2.24731
2.72836
3.2517
3.82535
4.41388
4.97873
5.51827
5.97623
6.36661
6.7118
6.96921
7.17058
7.3401
7.45336
7.53065
7.59414
7.64163
7.66958
7.687
7.69895
7.70439
7.70653
7.70957
7.71312
7.71453
7.71461
7.71427
7.71393
7.71356
7.71297
7.71247
7.71221
7.7118
1.00279
1.00173
1.00072
1.00063
1.00085
1.09382
1.31058
1.56016
1.88399
2.31305
2.79881
3.33467
3.93427
4.53928
5.13207
5.69122
6.16943
6.59627
6.94905
7.20363
7.42402
7.60708
7.72238
7.806
7.87745
7.92787
7.95784
7.97653
7.98762
7.99281
7.99688
8.00197
8.00588
8.00739
8.00733
8.00661
8.00612
8.00565
8.00474
8.00425
8.00445
8.00427
1.00024
1.00095
1.0005
1.00075
1.00024
1.13588
1.33663
1.59748
1.95219
2.37517
2.86059
3.42768
4.0444
4.67227
5.29388
5.86671
6.37964
6.83269
7.17961
7.45589
7.70515
7.8895
8.00751
8.10128
8.17846
8.22843
8.25862
8.27788
8.29022
8.29826
8.30489
8.31026
8.31346
8.31465
8.31442
8.31391
8.31392
8.31365
8.31272
8.3123
8.31267
8.3124
1.00073
1.00073
1.00212
1.00126
1.00371
1.1607
1.36689
1.65508
2.01161
2.42602
2.93653
3.52766
4.15353
4.80979
5.45773
6.05416
6.59527
7.0677
7.42887
7.73059
7.9981
8.18757
8.3125
8.41471
8.49587
8.54511
8.57429
8.59424
8.61002
8.62107
8.62831
8.63366
8.63704
8.63799
8.63763
8.63764
8.63811
8.63775
8.63702
8.63702
8.63765
8.63736
1.00199
1.00057
1.00112
1.00044
1.02504
1.18891
1.41801
1.70881
2.05356
2.49112
3.02877
3.62274
4.26696
4.95717
5.62759
6.25402
6.81601
7.30992
7.70376
8.02141
8.29839
8.5038
8.63558
8.73954
8.82604
8.88051
8.91165
8.93229
8.9498
8.96142
8.96787
8.97319
8.97741
8.97881
8.97903
8.97959
8.97973
8.97851
8.97747
8.97772
8.9787
8.97846
1.00108
1.00028
1.00224
1.00145
1.04971
1.22901
1.46585
1.74803
2.10804
2.57416
3.11545
3.71814
4.40164
5.11552
5.80781
6.46609
7.05386
7.5747
7.99688
8.32613
8.61481
8.83856
8.9762
9.07892
9.16924
9.23332
9.26952
9.29172
9.30899
9.32001
9.32623
9.33156
9.33576
9.33761
9.33873
9.33967
9.33877
9.33643
9.33528
9.33557
9.33661
9.33603
1.00111
1.0001
1.00068
1.00015
1.07546
1.26621
1.50998
1.79539
2.16937
2.65136
3.20322
3.83653
4.55258
5.28086
6.00531
6.69469
7.31182
7.85879
8.30639
8.65003
8.94786
9.18439
9.33188
9.43915
9.53413
9.60312
9.64313
9.6679
9.68606
9.69745
9.70425
9.70983
9.71402
9.71644
9.71796
9.71826
9.71616
9.71286