/*--------------------------------*- C++ -*----------------------------------*\
| =========                 |                                                 |
| \\      /  F ield         | OpenFOAM: The Open Source CFD Toolbox           |
|  \\    /   O peration     | Version:  2412                                  |
|   \\  /    A nd           | Website:  www.openfoam.com                      |
|    \\/     M anipulation  |                                                 |
\*---------------------------------------------------------------------------*/
FoamFile
{
    version     2.0;
    format      ascii;
    arch        "LSB;label=32;scalar=64";
    class       volScalarField;
    location    "0.013";
    object      T;
}
// * * * * * * * * * * * * * * * * * * * * * * * * * * * * * * * * * * * * * //

dimensions      [0 0 0 1 0 0 0];

internalField   nonuniform List<scalar> 
8988
(
264.811
264.503
264.098
263.822
263.664
263.577
263.536
263.512
263.494
263.481
263.471
263.463
263.457
263.454
263.452
263.45
263.45
263.449
263.449
263.448
263.448
263.448
263.448
263.447
263.447
263.447
263.446
263.446
263.446
263.445
263.444
263.443
263.441
263.44
263.438
263.436
263.434
263.433
263.431
263.43
263.429
263.428
266.61
266.2
265.466
264.7
264.208
263.906
263.703
263.604
263.573
263.54
263.506
263.49
263.486
263.485
263.477
263.469
263.465
263.463
263.46
263.456
263.454
263.451
263.448
263.445
263.442
263.439
263.436
263.433
263.43
263.428
263.425
263.422
263.419
263.416
263.414
263.411
263.409
263.407
263.405
263.403
263.401
263.4
267.939
267.49
266.646
265.609
264.791
264.294
263.954
263.715
263.611
263.574
263.525
263.485
263.47
263.462
263.449
263.441
263.437
263.433
263.43
263.427
263.425
263.423
263.421
263.419
263.417
263.416
263.415
263.414
263.414
263.413
263.413
263.412
263.41
263.409
263.407
263.406
263.405
263.403
263.402
263.401
263.4
263.4
268.972
268.568
267.708
266.513
265.435
264.718
264.25
263.912
263.699
263.607
263.544
263.487
263.453
263.432
263.416
263.406
263.398
263.392
263.389
263.387
263.386
263.385
263.385
263.385
263.384
263.384
263.384
263.384
263.384
263.386
263.387
263.389
263.391
263.393
263.395
263.397
263.399
263.4
263.401
263.402
263.402
263.403
269.808
269.438
268.569
267.361
266.116
265.151
264.567
264.158
263.844
263.661
263.568
263.495
263.439
263.405
263.383
263.369
263.358
263.352
263.348
263.346
263.345
263.345
263.345
263.346
263.346
263.347
263.348
263.35
263.352
263.354
263.357
263.361
263.366
263.372
263.378
263.384
263.389
263.394
263.398
263.401
263.403
263.405
270.601
270.234
269.332
268.101
266.795
265.659
264.879
264.393
264.024
263.747
263.592
263.498
263.427
263.383
263.35
263.33
263.321
263.314
263.306
263.303
263.302
263.302
263.302
263.303
263.304
263.305
263.307
263.31
263.313
263.316
263.321
263.327
263.333
263.341
263.35
263.359
263.369
263.378
263.386
263.393
263.398
263.401
271.404
270.99
270.042
268.774
267.431
266.194
265.232
264.603
264.188
263.856
263.631
263.499
263.413
263.365
263.325
263.295
263.284
263.277
263.268
263.261
263.26
263.26
263.259
263.26
263.261
263.262
263.265
263.268
263.271
263.276
263.281
263.288
263.296
263.306
263.316
263.328
263.34
263.353
263.364
263.375
263.383
263.388
272.173
271.719
270.757
269.418
268.004
266.708
265.629
264.842
264.333
263.964
263.692
263.516
263.405
263.35
263.308
263.268
263.249
263.24
263.232
263.222
263.219
263.218
263.218
263.218
263.218
263.22
263.223
263.226
263.23
263.234
263.24
263.248
263.257
263.266
263.278
263.29
263.303
263.317
263.331
263.344
263.353
263.36
272.827
272.435
271.526
270.123
268.538
267.122
266.021
265.15
264.498
264.05
263.753
263.552
263.41
263.331
263.286
263.246
263.218
263.205
263.197
263.186
263.18
263.179
263.178
263.177
263.177
263.179
263.181
263.184
263.188
263.193
263.199
263.206
263.215
263.224
263.235
263.247
263.26
263.273
263.287
263.299
263.308
263.316
273.504
273.117
272.15
270.757
269.162
267.592
266.332
265.408
264.698
264.167
263.812
263.59
263.433
263.322
263.266
263.23
263.196
263.173
263.162
263.153
263.145
263.141
263.139
263.139
263.138
263.139
263.14
263.143
263.147
263.151
263.156
263.162
263.17
263.178
263.188
263.198
263.209
263.22
263.231
263.241
263.248
263.255
274.216
273.76
272.767
271.328
269.7
268.112
266.716
265.649
264.879
264.31
263.893
263.625
263.457
263.328
263.248
263.21
263.177
263.145
263.129
263.12
263.111
263.104
263.101
263.1
263.099
263.099
263.1
263.102
263.104
263.108
263.112
263.116
263.122
263.128
263.135
263.143
263.151
263.158
263.165
263.172
263.176
263.181
274.794
274.398
273.449
271.965
270.204
268.518
267.111
265.96
265.068
264.443
263.994
263.676
263.481
263.338
263.24
263.19
263.151
263.116
263.097
263.087
263.076
263.068
263.064
263.062
263.06
263.058
263.058
263.059
263.06
263.062
263.064
263.067
263.07
263.073
263.077
263.08
263.084
263.088
263.09
263.093
263.095
263.098
275.415
275.005
274.001
272.535
270.789
268.985
267.45
266.249
265.297
264.594
264.096
263.748
263.513
263.346
263.24
263.173
263.121
263.086
263.065
263.049
263.037
263.029
263.025
263.02
263.017
263.015
263.013
263.012
263.012
263.012
263.012
263.012
263.011
263.011
263.011
263.01
263.01
263.009
263.008
263.007
263.007
263.008
276.01
275.586
274.56
273.103
271.329
269.438
267.799
266.545
265.544
264.756
264.208
263.825
263.547
263.361
263.24
263.153
263.093
263.055
263.028
263.009
262.997
262.988
262.981
262.975
262.971
262.967
262.964
262.961
262.958
262.956
262.953
262.95
262.946
262.942
262.938
262.934
262.929
262.925
262.921
262.917
262.914
262.914
276.618
276.141
275.107
273.606
271.794
269.903
268.192
266.826
265.75
264.915
264.32
263.889
263.581
263.377
263.232
263.129
263.064
263.019
262.986
262.966
262.952
262.94
262.931
262.925
262.919
262.914
262.908
262.903
262.899
262.893
262.888
262.882
262.875
262.867
262.86
262.852
262.844
262.836
262.829
262.823
262.819
262.817
277.077
276.691
275.687
274.143
272.23
270.275
268.569
267.128
265.954
265.076
264.433
263.954
263.618
263.386
263.218
263.106
263.031
262.977
262.941
262.918
262.9
262.887
262.876
262.868
262.86
262.853
262.846
262.839
262.831
262.824
262.815
262.806
262.797
262.787
262.776
262.765
262.755
262.745
262.736
262.727
262.721
262.718
277.603
277.175
276.132
274.607
272.723
270.686
268.869
267.394
266.179
265.227
264.529
264.015
263.648
263.384
263.201
263.077
262.989
262.93
262.891
262.864
262.843
262.827
262.815
262.804
262.795
262.786
262.777
262.767
262.758
262.748
262.737
262.725
262.714
262.701
262.688
262.676
262.663
262.651
262.64
262.631
262.623
262.619
278.142
277.631
276.598
275.016
273.097
271.108
269.228
267.631
266.368
265.376
264.62
264.067
263.666
263.377
263.178
263.037
262.94
262.876
262.832
262.801
262.778
262.759
262.745
262.733
262.721
262.711
262.7
262.689
262.677
262.665
262.653
262.64
262.627
262.612
262.598
262.583
262.569
262.556
262.544
262.533
262.525
262.52
278.549
278.073
277.002
275.454
273.539
271.438
269.501
267.889
266.559
265.497
264.699
264.107
263.67
263.361
263.141
262.985
262.881
262.81
262.76
262.727
262.701
262.68
262.664
262.651
262.639
262.628
262.616
262.604
262.591
262.578
262.565
262.55
262.535
262.52
262.504
262.489
262.473
262.459
262.446
262.435
262.427
262.421
278.992
278.454
277.366
275.816
273.907
271.813
269.783
268.094
266.741
265.621
264.772
264.139
263.672
263.341
263.099
262.93
262.816
262.736
262.682
262.645
262.617
262.594
262.576
262.561
262.548
262.536
262.523
262.511
262.498
262.485
262.471
262.456
262.44
262.424
262.408
262.391
262.375
262.36
262.347
262.335
262.328
262.322
279.386
278.829
277.769
276.148
274.2
272.139
270.108
268.313
266.879
265.745
264.847
264.164
263.669
263.313
263.049
262.866
262.741
262.654
262.595
262.554
262.524
262.5
262.48
262.465
262.451
262.438
262.426
262.414
262.401
262.387
262.372
262.357
262.341
262.325
262.308
262.291
262.275
262.259
262.246
262.235
262.227
262.222
279.623
279.195
278.193
276.554
274.489
272.358
270.371
268.566
267.031
265.84
264.91
264.189
263.665
263.278
262.995
262.798
262.662
262.57
262.504
262.456
262.424
262.4
262.38
262.362
262.347
262.335
262.323
262.311
262.298
262.283
262.269
262.254
262.238
262.221
262.204
262.187
262.171
262.156
262.143
262.132
262.125
262.119
279.96
279.518
278.47
276.899
274.887
272.65
270.582
268.777
267.21
265.948
264.972
264.219
263.657
263.238
262.94
262.726
262.578
262.478
262.406
262.354
262.32
262.294
262.271
262.253
262.238
262.226
262.214
262.202
262.189
262.175
262.16
262.145
262.13
262.114
262.097
262.08
262.064
262.05
262.038
262.027
262.02
262.014
280.267
279.865
278.824
277.228
275.196
272.922
270.838
268.996
267.372
266.046
265.034
264.244
263.641
263.199
262.878
262.646
262.487
262.377
262.297
262.244
262.208
262.179
262.155
262.136
262.123
262.111
262.099
262.087
262.075
262.062
262.048
262.033
262.018
262.002
261.986
261.97
261.955
261.941
261.928
261.918
261.91
261.905
280.593
280.169
279.114
277.521
275.492
273.215
271.058
269.16
267.508
266.141
265.073
264.247
263.617
263.149
262.803
262.561
262.392
262.267
262.184
262.131
262.091
262.059
262.034
262.016
262.002
261.989
261.977
261.966
261.955
261.943
261.93
261.917
261.903
261.888
261.872
261.857
261.842
261.828
261.815
261.804
261.797
261.792
280.959
280.422
279.377
277.73
275.708
273.522
271.311
269.299
267.618
266.243
265.118
264.246
263.594
263.096
262.725
262.474
262.29
262.151
262.065
262.009
261.964
261.929
261.906
261.888
261.874
261.861
261.851
261.841
261.831
261.82
261.808
261.796
261.783
261.769
261.754
261.739
261.724
261.71
261.697
261.686
261.678
261.673
281.134
280.693
279.635
278.036
276.003
273.687
271.448
269.471
267.755
266.296
265.138
264.234
263.552
263.027
262.639
262.373
262.172
262.03
261.944
261.881
261.83
261.797
261.775
261.756
261.74
261.728
261.719
261.711
261.701
261.691
261.681
261.67
261.658
261.645
261.632
261.617
261.603
261.588
261.575
261.564
261.556
261.55
281.454
280.907
279.832
278.216
276.217
273.974
271.669
269.596
267.848
266.374
265.166
264.226
263.515
262.963
262.562
262.276
262.058
261.913
261.819
261.746
261.694
261.663
261.641
261.62
261.603
261.591
261.583
261.576
261.567
261.558
261.549
261.539
261.528
261.516
261.504
261.491
261.476
261.462
261.449
261.437
261.428
261.422
281.664
281.143
280.109
278.444
276.374
274.156
271.894
269.764
267.926
266.431
265.191
264.211
263.462
262.886
262.47
262.164
261.937
261.787
261.683
261.605
261.553
261.521
261.497
261.476
261.461
261.451
261.443
261.435
261.427
261.42
261.412
261.403
261.393
261.383
261.371
261.359
261.345
261.331
261.318
261.306
261.296
261.29
281.78
281.337
280.29
278.68
276.608
274.273
272.01
269.911
268.027
266.468
265.206
264.197
263.413
262.818
262.381
262.055
261.819
261.659
261.547
261.467
261.413
261.375
261.347
261.328
261.313
261.302
261.294
261.287
261.28
261.274
261.267
261.26
261.252
261.243
261.233
261.221
261.209
261.196
261.183
261.171
261.162
261.155
281.878
281.508
280.489
278.87
276.759
274.396
272.144
270.032
268.11
266.507
265.211
264.176
263.362
262.746
262.286
261.941
261.697
261.527
261.407
261.323
261.265
261.224
261.195
261.175
261.159
261.147
261.138
261.133
261.128
261.122
261.116
261.109
261.102
261.095
261.087
261.077
261.066
261.055
261.044
261.033
261.025
261.018
282.038
281.671
280.672
279.002
276.845
274.554
272.314
270.115
268.165
266.553
265.22
264.149
263.311
262.669
262.185
261.828
261.569
261.386
261.26
261.173
261.11
261.066
261.038
261.017
260.998
260.985
260.977
260.972
260.968
260.964
260.958
260.951
260.945
260.939
260.933
260.926
260.917
260.909
260.9
260.892
260.886
260.881
282.169
281.822
280.814
279.17
277.042
274.695
272.419
270.241
268.255
266.584
265.228
264.124
263.256
262.59
262.088
261.714
261.441
261.248
261.111
261.014
260.949
260.905
260.875
260.852
260.834
260.82
260.81
260.804
260.8
260.796
260.792
260.787
260.782
260.778
260.773
260.769
260.763
260.757
260.752
260.747
260.743
260.741
282.418
281.924
280.919
279.236
277.172
274.919
272.561
270.293
268.309
266.63
265.22
264.085
263.191
262.498
261.979
261.588
261.301
261.102
260.958
260.853
260.786
260.741
260.706
260.68
260.663
260.651
260.641
260.633
260.627
260.624
260.621
260.617
260.614
260.611
260.608
260.606
260.603
260.601
260.599
260.598
260.597
260.597
282.552
282.027
281.036
279.358
277.293
275.064
272.704
270.368
268.357
266.668
265.217
264.047
263.124
262.408
261.869
261.459
261.161
260.951
260.796
260.687
260.616
260.568
260.531
260.505
260.489
260.476
260.464
260.456
260.451
260.448
260.445
260.442
260.441
260.44
260.439
260.438
260.439
260.44
260.442
260.443
260.445
260.446
282.687
282.12
281.076
279.481
277.494
275.198
272.746
270.437
268.433
266.69
265.199
264.001
263.051
262.31
261.75
261.329
261.018
260.796
260.635
260.517
260.438
260.386
260.351
260.325
260.306
260.292
260.282
260.275
260.27
260.268
260.265
260.265
260.265
260.266
260.266
260.268
260.271
260.275
260.279
260.283
260.286
260.289
282.703
282.218
281.175
279.678
277.652
275.247
272.768
270.525
268.519
266.704
265.17
263.951
262.981
262.208
261.624
261.193
260.864
260.629
260.462
260.34
260.258
260.206
260.168
260.138
260.116
260.103
260.094
260.088
260.084
260.083
260.083
260.085
260.087
260.088
260.09
260.094
260.099
260.105
260.111
260.116
260.12
260.124
282.687
282.294
281.336
279.767
277.697
275.25
272.849
270.631
268.534
266.676
265.143
263.892
262.89
262.096
261.496
261.044
260.699
260.455
260.282
260.157
260.073
260.018
259.976
259.944
259.925
259.913
259.904
259.898
259.895
259.895
259.897
259.9
259.903
259.907
259.911
259.917
259.923
259.93
259.936
259.942
259.947
259.95
282.742
282.379
281.409
279.768
277.627
275.318
273.001
270.659
268.501
266.66
265.11
263.823
262.79
261.973
261.355
260.886
260.533
260.28
260.1
259.971
259.882
259.819
259.775
259.747
259.73
259.718
259.709
259.704
259.704
259.704
259.707
259.711
259.715
259.721
259.727
259.734
259.742
259.749
259.756
259.762
259.766
259.769
282.883
282.346
281.332
279.733
277.729
275.441
272.973
270.602
268.509
266.661
265.045
263.742
262.686
261.844
261.213
260.725
260.359
260.104
259.915
259.775
259.684
259.623
259.58
259.55
259.531
259.519
259.511
259.508
259.51
259.511
259.513
259.516
259.522
259.529
259.536
259.544
259.553
259.561
259.568
259.574
259.578
259.582
282.805
282.348
281.324
279.837
277.811
275.401
272.929
270.642
268.542
266.616
264.979
263.668
262.584
261.726
261.074
260.564
260.189
259.928
259.728
259.578
259.484
259.426
259.383
259.35
259.328
259.314
259.308
259.309
259.311
259.312
259.313
259.318
259.326
259.333
259.341
259.349
259.357
259.364
259.371
259.378
259.383
259.387
282.723
282.381
281.419
279.847
277.757
275.36
273.011
270.722
268.493
266.559
264.959
263.594
262.479
261.61
260.933
260.404
260.02
259.748
259.54
259.387
259.288
259.224
259.178
259.144
259.12
259.107
259.104
259.105
259.107
259.106
259.108
259.115
259.123
259.132
259.14
259.148
259.155
259.162
259.168
259.174
259.179
259.183
282.838
282.323
281.312
279.778
277.794
275.484
272.996
270.624
268.483
266.554
264.875
263.489
262.368
261.474
260.777
260.242
259.845
259.554
259.341
259.191
259.089
259.018
258.967
258.932
258.909
258.898
258.895
258.895
258.894
258.894
258.898
258.906
258.915
258.923
258.931
258.939
258.946
258.953
258.958
258.963
258.968
258.971
282.853
282.29
281.247
279.738
277.817
275.527
272.984
270.579
268.466
266.527
264.809
263.406
262.266
261.349
260.634
260.086
259.677
259.371
259.15
258.996
258.887
258.808
258.754
258.72
258.698
258.686
258.681
258.678
258.676
258.676
258.681
258.69
258.698
258.705
258.713
258.721
258.728
258.735
258.741
258.745
258.748
258.751
282.836
282.29
281.285
279.703
277.734
275.499
273.071
270.594
268.39
266.462
264.75
263.315
262.146
261.217
260.486
259.921
259.501
259.188
258.958
258.797
258.683
258.6
258.543
258.507
258.484
258.47
258.461
258.456
258.455
258.456
258.46
258.467
258.473
258.48
258.486
258.493
258.5
258.507
258.513
258.518
258.521
258.523
282.66
282.307
281.374
279.772
277.689
275.4
273.054
270.672
268.363
266.382
264.703
263.236
262.037
261.092
260.339
259.757
259.325
259.002
258.763
258.593
258.474
258.39
258.332
258.293
258.267
258.25
258.24
258.234
258.232
258.232
258.234
258.237
258.241
258.247
258.254
258.26
258.266
258.272
258.277
258.282
258.285
258.287
282.75
282.207
281.204
279.696
277.758
275.478
272.986
270.583
268.379
266.372
264.619
263.14
261.93
260.962
260.186
259.598
259.155
258.812
258.567
258.395
258.267
258.176
258.116
258.074
258.044
258.025
258.014
258.008
258.005
258.004
258.003
258.002
258.004
258.01
258.016
258.021
258.025
258.029
258.034
258.037
258.039
258.041
282.683
282.154
281.126
279.71
277.786
275.45
272.936
270.579
268.389
266.339
264.548
263.06
261.823
260.828
260.026
259.423
258.971
258.614
258.361
258.187
258.051
257.953
257.891
257.85
257.816
257.793
257.782
257.777
257.772
257.767
257.763
257.762
257.764
257.769
257.773
257.775
257.778
257.781
257.784
257.785
257.786
257.787
282.517
282.142
281.192
279.692
277.696
275.324
272.95
270.64
268.344
266.249
264.479
262.964
261.697
260.682
259.864
259.247
258.773
258.403
258.155
257.975
257.827
257.725
257.663
257.618
257.58
257.556
257.545
257.538
257.531
257.522
257.517
257.516
257.518
257.522
257.522
257.523
257.524
257.526
257.527
257.527
257.526
257.527
282.46
282.046
281.082
279.627
277.689
275.301
272.894
270.571
268.271
266.191
264.399
262.844
261.569
260.529
259.697
259.066
258.565
258.19
257.941
257.754
257.594
257.493
257.43
257.378
257.338
257.317
257.305
257.294
257.283
257.275
257.269
257.267
257.267
257.267
257.265
257.264
257.263
257.264
257.263
257.262
257.261
257.262
282.33
281.939
281.017
279.564
277.625
275.231
272.78
270.476
268.245
266.113
264.249
262.702
261.416
260.347
259.513
258.871
258.35
257.978
257.722
257.518
257.359
257.259
257.189
257.134
257.096
257.073
257.056
257.043
257.033
257.025
257.018
257.013
257.01
257.007
257.003
257
256.998
256.997
256.994
256.992
256.991
256.991
282.335
281.798
280.81
279.372
277.494
275.251
272.737
270.314
268.099
266.008
264.124
262.556
261.253
260.173
259.325
258.665
258.145
257.764
257.486
257.272
257.116
257.01
256.935
256.882
256.846
256.821
256.803
256.79
256.78
256.77
256.761
256.754
256.748
256.743
256.738
256.734
256.73
256.726
256.721
256.717
256.715
256.714
282.111
281.693
280.799
279.262
277.283
275.073
272.695
270.273
267.922
265.832
264.004
262.404
261.072
259.989
259.128
258.451
257.923
257.535
257.246
257.024
256.867
256.761
256.685
256.627
256.585
256.558
256.541
256.528
256.516
256.506
256.497
256.489
256.481
256.475
256.469
256.463
256.458
256.451
256.445
256.44
256.436
256.434
281.933
281.6
280.705
279.17
277.162
274.943
272.591
270.146
267.789
265.709
263.869
262.24
260.905
259.81
258.921
258.238
257.704
257.293
256.997
256.776
256.611
256.497
256.419
256.362
256.319
256.289
256.271
256.257
256.244
256.234
256.225
256.217
256.209
256.201
256.194
256.187
256.18
256.173
256.166
256.16
256.155
256.152
281.89
281.378
280.406
279.007
277.141
274.913
272.4
269.979
267.754
265.632
263.7
262.081
260.75
259.616
258.703
258.012
257.48
257.053
256.738
256.517
256.352
256.229
256.145
256.088
256.046
256.014
255.995
255.981
255.967
255.955
255.945
255.938
255.929
255.92
255.912
255.905
255.898
255.89
255.883
255.876
255.871
255.867
281.714
281.2
280.231
278.852
277.006
274.77
272.276
269.88
267.677
265.539
263.569
261.939
260.583
259.424
258.504
257.79
257.243
256.808
256.476
256.249
256.083
255.956
255.865
255.806
255.764
255.733
255.712
255.696
255.682
255.669
255.659
255.65
255.642
255.632
255.624
255.617
255.611
255.603
255.596
255.59
255.585
255.58
281.526
281.031
280.104
278.726
276.861
274.615
272.178
269.805
267.571
265.4
263.444
261.807
260.409
259.226
258.298
257.571
256.989
256.548
256.22
255.974
255.8
255.675
255.582
255.514
255.471
255.442
255.42
255.403
255.389
255.377
255.366
255.357
255.348
255.339
255.332
255.326
255.319
255.312
255.305
255.3
255.295
255.292
281.381
280.88
279.966
278.469
276.608
274.556
272.217
269.723
267.346
265.233
263.332
261.634
260.199
259.022
258.081
257.321
256.721
256.283
255.949
255.693
255.514
255.384
255.286
255.218
255.174
255.142
255.118
255.1
255.087
255.074
255.065
255.056
255.049
255.042
255.036
255.03
255.024
255.017
255.012
255.007
255.003
255
281.129
280.692
279.825
278.343
276.46
274.399
272.076
269.539
267.174
265.114
263.183
261.439
259.996
258.81
257.84
257.066
256.473
256.011
255.655
255.401
255.217
255.077
254.977
254.912
254.867
254.834
254.809
254.791
254.777
254.766
254.758
254.751
254.744
254.738
254.734
254.73
254.724
254.719
254.715
254.711
254.708
254.706
280.868
280.501
279.685
278.151
276.23
274.164
271.896
269.447
267.021
264.889
262.988
261.248
259.777
258.571
257.578
256.805
256.198
255.72
255.372
255.108
254.903
254.766
254.674
254.604
254.551
254.519
254.498
254.48
254.466
254.457
254.448
254.44
254.434
254.429
254.426
254.423
254.419
254.415
254.413
254.411
254.408
254.406
280.636
280.169
279.265
277.926
276.171
274.023
271.574
269.15
266.903
264.753
262.752
261.017
259.551
258.319
257.32
256.538
255.892
255.404
255.072
254.807
254.586
254.449
254.361
254.286
254.229
254.2
254.182
254.164
254.151
254.142
254.132
254.125
254.12
254.117
254.115
254.112
254.109
254.107
254.106
254.104
254.103
254.102
280.362
279.836
278.907
277.668
275.982
273.815
271.312
268.956
266.747
264.539
262.513
260.776
259.303
258.055
257.049
256.246
255.586
255.114
254.771
254.479
254.263
254.132
254.039
253.955
253.904
253.877
253.856
253.839
253.827
253.815
253.807
253.804
253.803
253.801
253.798
253.796
253.795
253.795
253.794
253.792
253.791
253.791
280.011
279.558
278.635
277.463
275.761
273.459
271.053
268.817
266.53
264.263
262.273
260.539
259.037
257.779
256.765
255.938
255.29
254.818
254.445
254.15
253.947
253.804
253.696
253.62
253.571
253.54
253.52
253.507
253.493
253.481
253.476
253.477
253.478
253.475
253.474
253.474
253.476
253.477
253.476
253.475
253.474
253.475
279.587
279.315
278.528
277.21
275.371
273.092
270.884
268.648
266.231
263.988
262.04
260.288
258.766
257.501
256.46
255.645
254.999
254.484
254.115
253.839
253.613
253.456
253.359
253.29
253.235
253.198
253.178
253.165
253.154
253.146
253.143
253.143
253.143
253.143
253.144
253.147
253.15
253.151
253.151
253.15
253.151
253.152
279.29
279.034
278.238
276.897
275.068
272.836
270.608
268.363
265.989
263.736
261.776
260.028
258.49
257.214
256.167
255.343
254.666
254.143
253.795
253.513
253.271
253.116
253.021
252.948
252.889
252.851
252.831
252.82
252.814
252.809
252.804
252.802
252.802
252.805
252.81
252.814
252.818
252.819
252.819
252.82
252.822
252.822
278.965
278.684
277.881
276.551
274.771
272.569
270.339
268.108
265.747
263.49
261.525
259.765
258.215
256.928
255.877
255.038
254.337
253.822
253.478
253.18
252.933
252.781
252.679
252.597
252.536
252.5
252.48
252.47
252.467
252.464
252.458
252.455
252.458
252.464
252.469
252.473
252.476
252.48
252.483
252.485
252.486
252.486
278.7
278.44
277.598
276.23
274.397
272.291
270.162
267.895
265.457
263.211
261.284
259.513
257.928
256.631
255.569
254.718
254.023
253.51
253.136
252.822
252.588
252.438
252.328
252.241
252.182
252.147
252.128
252.118
252.114
252.109
252.104
252.103
252.108
252.116
252.12
252.123
252.128
252.134
252.14
252.144
252.145
252.145
278.485
278.007
277.131
275.869
274.195
272.151
269.822
267.489
265.228
263.035
261.013
259.212
257.658
256.339
255.267
254.41
253.712
253.185
252.785
252.471
252.242
252.078
251.96
251.879
251.825
251.789
251.767
251.758
251.754
251.748
251.744
251.745
251.752
251.759
251.763
251.768
251.774
251.783
251.79
251.795
251.797
251.798
278.158
277.612
276.735
275.532
273.958
271.937
269.528
267.199
265.027
262.819
260.736
258.941
257.391
256.046
254.977
254.1
253.372
252.84
252.441
252.129
251.891
251.713
251.595
251.521
251.469
251.429
251.404
251.392
251.384
251.379
251.379
251.384
251.39
251.394
251.399
251.406
251.415
251.425
251.433
251.438
251.441
251.444
277.781
277.311
276.414
275.309
273.706
271.57
269.197
267.036
264.853
262.548
260.476
258.7
257.127
255.781
254.687
253.776
253.059
252.505
252.076
251.774
251.538
251.347
251.231
251.16
251.104
251.06
251.035
251.023
251.013
251.008
251.011
251.017
251.019
251.021
251.028
251.039
251.05
251.06
251.068
251.074
251.078
251.082
277.391
277.003
276.157
275.02
273.374
271.258
268.951
266.729
264.546
262.338
260.267
258.439
256.856
255.502
254.368
253.455
252.742
252.156
251.73
251.43
251.177
250.986
250.873
250.794
250.727
250.684
250.661
250.647
250.637
250.636
250.64
250.644
250.644
250.647
250.656
250.666
250.677
250.687
250.695
250.701
250.707
250.713
276.941
276.584
275.879
274.529
272.846
270.995
268.864
266.487
264.239
262.12
260.067
258.185
256.578
255.2
254.051
253.142
252.397
251.81
251.396
251.067
250.804
250.63
250.508
250.411
250.346
250.307
250.284
250.267
250.26
250.259
250.261
250.262
250.263
250.268
250.277
250.288
250.298
250.308
250.315
250.322
250.329
250.334
276.519
276.149
275.459
274.124
272.501
270.739
268.608
266.211
264.02
261.913
259.81
257.917
256.299
254.898
253.748
252.814
252.042
251.481
251.048
250.683
250.438
250.273
250.132
250.027
249.967
249.928
249.899
249.883
249.878
249.876
249.874
249.874
249.877
249.883
249.892
249.901
249.912
249.921
249.929
249.937
249.944
249.948
276.237
275.762
275.015
273.757
272.226
270.452
268.272
265.935
263.795
261.655
259.518
257.643
256.013
254.587
253.43
252.461
251.696
251.148
250.678
250.303
250.074
249.901
249.744
249.644
249.584
249.542
249.51
249.495
249.489
249.486
249.483
249.483
249.485
249.492
249.5
249.509
249.519
249.528
249.537
249.546
249.552
249.554
275.935
275.388
274.59
273.413
271.937
270.14
267.916
265.648
263.517
261.322
259.219
257.369
255.705
254.264
253.094
252.117
251.36
250.789
250.301
249.935
249.699
249.511
249.355
249.256
249.195
249.15
249.118
249.101
249.095
249.092
249.09
249.089
249.09
249.095
249.103
249.112
249.12
249.129
249.139
249.148
249.152
249.155
275.538
275.003
274.183
273.097
271.661
269.791
267.532
265.337
263.225
261.006
258.924
257.073
255.374
253.928
252.757
251.781
250.994
250.417
249.941
249.559
249.309
249.122
248.965
248.861
248.799
248.755
248.721
248.704
248.698
248.694
248.689
248.687
248.689
248.695
248.703
248.71
248.717
248.726
248.735
248.742
248.745
248.748
275.126
274.616
273.757
272.767
271.351
269.396
267.146
265.063
262.95
260.683
258.607
256.751
255.034
253.593
252.417
251.425
250.637
250.042
249.551
249.182
248.926
248.72
248.564
248.466
248.4
248.349
248.317
248.305
248.3
248.293
248.286
248.285
248.287
248.29
248.294
248.302
248.311
248.319
248.325
248.329
248.331
248.334
274.632
274.304
273.519
272.44
270.908
268.852
266.812
264.856
262.608
260.325
258.293
256.42
254.701
253.27
252.055
251.056
250.274
249.651
249.167
248.807
248.52
248.307
248.17
248.07
247.991
247.939
247.913
247.899
247.888
247.88
247.878
247.88
247.881
247.881
247.883
247.89
247.898
247.904
247.908
247.91
247.912
247.915
274.163
274
273.282
272.016
270.31
268.458
266.617
264.497
262.152
260.011
257.983
256.055
254.367
252.922
251.679
250.691
249.9
249.252
248.779
248.415
248.111
247.906
247.774
247.668
247.582
247.534
247.51
247.493
247.476
247.468
247.467
247.466
247.465
247.466
247.47
247.476
247.48
247.482
247.485
247.487
247.489
247.492
273.813
273.534
272.878
271.531
269.883
268.252
266.33
263.996
261.756
259.705
257.635
255.693
254.023
252.547
251.322
250.328
249.507
248.867
248.385
248.007
247.711
247.502
247.36
247.254
247.175
247.125
247.096
247.077
247.063
247.054
247.051
247.049
247.047
247.048
247.052
247.055
247.055
247.056
247.058
247.06
247.062
247.063
273.507
273.066
272.356
271.115
269.613
267.974
265.895
263.564
261.455
259.378
257.269
255.357
253.672
252.181
250.964
249.937
249.112
248.495
247.987
247.597
247.311
247.093
246.945
246.843
246.764
246.708
246.674
246.654
246.639
246.632
246.63
246.628
246.625
246.625
246.626
246.627
246.627
246.627
246.628
246.629
246.631
246.632
273.176
272.617
271.82
270.723
269.361
267.581
265.385
263.234
261.205
259.003
256.893
255.027
253.315
251.825
250.588
249.535
248.732
248.099
247.566
247.192
246.911
246.676
246.526
246.427
246.344
246.282
246.246
246.225
246.21
246.204
246.202
246.199
246.195
246.193
246.194
246.194
246.195
246.195
246.196
246.197
246.197
246.198
272.653
272.194
271.358
270.419
269.003
267.04
264.934
262.982
260.882
258.604
256.544
254.688
252.947
251.465
250.205
249.152
248.342
247.669
247.148
246.796
246.496
246.252
246.106
246.003
245.912
245.848
245.812
245.79
245.777
245.772
245.768
245.762
245.757
245.755
245.756
245.757
245.758
245.759
245.76
245.76
245.76
245.76
271.997
271.785
271.142
270.021
268.4
266.5
264.65
262.643
260.389
258.237
256.242
254.32
252.585
251.094
249.814
248.774
247.932
247.243
246.756
246.386
246.055
245.821
245.679
245.566
245.472
245.412
245.377
245.355
245.341
245.333
245.325
245.319
245.316
245.315
245.316
245.316
245.316
245.317
245.318
245.318
245.318
245.318
271.551
271.379
270.74
269.457
267.857
266.186
264.327
262.146
259.971
257.939
255.883
253.936
252.235
250.721
249.43
248.384
247.526
246.835
246.347
245.956
245.615
245.385
245.241
245.122
245.026
244.971
244.939
244.917
244.9
244.887
244.88
244.874
244.87
244.87
244.871
244.871
244.87
244.871
244.872
244.872
244.871
244.871
271.302
270.869
270.12
268.977
267.548
265.837
263.807
261.699
259.679
257.573
255.467
253.581
251.882
250.335
249.045
247.983
247.125
246.429
245.914
245.519
245.182
244.941
244.795
244.68
244.582
244.523
244.49
244.469
244.45
244.437
244.431
244.426
244.421
244.42
244.421
244.42
244.42
244.422
244.423
244.422
244.421
244.421
270.879
270.437
269.644
268.609
267.194
265.356
263.335
261.376
259.314
257.129
255.088
253.237
251.481
249.937
248.653
247.575
246.71
246.004
245.472
245.081
244.744
244.491
244.344
244.237
244.139
244.071
244.034
244.012
243.994
243.983
243.978
243.973
243.969
243.967
243.966
243.965
243.967
243.969
243.971
243.97
243.969
243.97
270.414
269.999
269.192
268.223
266.833
264.922
262.91
260.998
258.917
256.729
254.719
252.829
251.052
249.538
248.241
247.153
246.28
245.567
245.025
244.633
244.301
244.044
243.893
243.785
243.688
243.617
243.578
243.554
243.537
243.526
243.52
243.515
243.511
243.509
243.508
243.508
243.51
243.514