/*--------------------------------*- C++ -*----------------------------------*\
| =========                 |                                                 |
| \\      /  F ield         | OpenFOAM: The Open Source CFD Toolbox           |
|  \\    /   O peration     | Version:  2412                                  |
|   \\  /    A nd           | Website:  www.openfoam.com                      |
|    \\/     M anipulation  |                                                 |
\*---------------------------------------------------------------------------*/
FoamFile
{
    version     2.0;
    format      ascii;
    arch        "LSB;label=32;scalar=64";
    class       volVectorField;
    location    "0.013";
    object      U;
}
// * * * * * * * * * * * * * * * * * * * * * * * * * * * * * * * * * * * * * //

dimensions      [0 1 -1 0 0 0 0];

internalField   nonuniform List<vector> 
8988
(
(189.099 -0.306257 0)
(189.117 -0.341115 0)
(189.103 -0.337177 0)
(189.084 -0.34646 0)
(189.095 -0.326252 0)
(189.121 -0.362899 0)
(189.144 -0.414481 0)
(189.175 -0.437658 0)
(189.192 -0.424621 0)
(189.204 -0.426512 0)
(189.206 -0.438878 0)
(189.212 -0.45517 0)
(189.219 -0.467382 0)
(189.226 -0.475912 0)
(189.233 -0.486222 0)
(189.242 -0.498554 0)
(189.255 -0.511424 0)
(189.271 -0.522059 0)
(189.29 -0.531331 0)
(189.31 -0.539778 0)
(189.329 -0.547566 0)
(189.347 -0.553984 0)
(189.365 -0.560515 0)
(189.384 -0.5643 0)
(189.401 -0.571712 0)
(189.42 -0.576191 0)
(189.442 -0.578099 0)
(189.467 -0.579004 0)
(189.494 -0.581096 0)
(189.521 -0.573339 0)
(189.551 -0.563148 0)
(189.581 -0.546641 0)
(189.613 -0.526259 0)
(189.645 -0.501031 0)
(189.678 -0.470854 0)
(189.709 -0.433188 0)
(189.739 -0.388003 0)
(189.767 -0.334906 0)
(189.791 -0.27386 0)
(189.81 -0.204974 0)
(189.825 -0.12851 0)
(189.831 -0.0442899 0)
(189 -0.58209 0)
(188.982 -0.732262 0)
(188.806 -0.535532 0)
(188.739 -0.394949 0)
(188.669 -0.662026 0)
(188.758 -0.616103 0)
(188.82 -0.460365 0)
(188.867 -0.489522 0)
(188.917 -0.639184 0)
(188.953 -0.645115 0)
(188.976 -0.59481 0)
(189.007 -0.568591 0)
(189.034 -0.597748 0)
(189.056 -0.635233 0)
(189.076 -0.637542 0)
(189.103 -0.631818 0)
(189.133 -0.643975 0)
(189.166 -0.65021 0)
(189.199 -0.651634 0)
(189.232 -0.653308 0)
(189.267 -0.657388 0)
(189.301 -0.659094 0)
(189.335 -0.659147 0)
(189.369 -0.658424 0)
(189.407 -0.661025 0)
(189.454 -0.664173 0)
(189.503 -0.654757 0)
(189.553 -0.64718 0)
(189.599 -0.635188 0)
(189.643 -0.620647 0)
(189.686 -0.603697 0)
(189.725 -0.580034 0)
(189.764 -0.552434 0)
(189.803 -0.519208 0)
(189.842 -0.481724 0)
(189.88 -0.439432 0)
(189.917 -0.390559 0)
(189.951 -0.334415 0)
(189.981 -0.271116 0)
(190.005 -0.201128 0)
(190.022 -0.12478 0)
(190.03 -0.0424334 0)
(189.677 -0.885665 0)
(189.655 -1.12785 0)
(189.57 -0.849849 0)
(189.35 -0.548085 0)
(189.106 -0.68717 0)
(188.951 -1.01189 0)
(188.919 -0.917902 0)
(188.938 -0.692832 0)
(188.961 -0.748625 0)
(189.029 -0.919253 0)
(189.071 -0.872821 0)
(189.113 -0.807682 0)
(189.142 -0.834132 0)
(189.187 -0.857236 0)
(189.226 -0.840364 0)
(189.264 -0.836329 0)
(189.298 -0.836374 0)
(189.33 -0.832258 0)
(189.362 -0.825326 0)
(189.394 -0.820109 0)
(189.426 -0.815982 0)
(189.46 -0.811703 0)
(189.494 -0.804739 0)
(189.53 -0.798954 0)
(189.565 -0.789248 0)
(189.6 -0.779933 0)
(189.635 -0.766203 0)
(189.67 -0.753589 0)
(189.705 -0.739205 0)
(189.742 -0.722553 0)
(189.78 -0.701815 0)
(189.82 -0.67403 0)
(189.863 -0.640479 0)
(189.907 -0.60161 0)
(189.951 -0.556833 0)
(189.995 -0.505856 0)
(190.035 -0.447414 0)
(190.071 -0.381465 0)
(190.099 -0.308736 0)
(190.121 -0.229476 0)
(190.139 -0.142361 0)
(190.14 -0.0474835 0)
(190.388 -1.2613 0)
(190.419 -1.38335 0)
(190.236 -1.19331 0)
(189.961 -1.0974 0)
(189.642 -0.840703 0)
(189.295 -1.06147 0)
(189.154 -1.30303 0)
(189.077 -1.13811 0)
(189.081 -0.979611 0)
(189.097 -1.11782 0)
(189.175 -1.15197 0)
(189.265 -1.10095 0)
(189.359 -1.09768 0)
(189.431 -1.09853 0)
(189.483 -1.09244 0)
(189.523 -1.08288 0)
(189.552 -1.06545 0)
(189.579 -1.05202 0)
(189.605 -1.03827 0)
(189.633 -1.0255 0)
(189.663 -1.0111 0)
(189.696 -0.998397 0)
(189.729 -0.983729 0)
(189.763 -0.967969 0)
(189.796 -0.948857 0)
(189.826 -0.927295 0)
(189.855 -0.903164 0)
(189.887 -0.879637 0)
(189.918 -0.852745 0)
(189.949 -0.825052 0)
(189.981 -0.794613 0)
(190.013 -0.760224 0)
(190.045 -0.721609 0)
(190.077 -0.67934 0)
(190.108 -0.632141 0)
(190.138 -0.578332 0)
(190.166 -0.515937 0)
(190.191 -0.444156 0)
(190.212 -0.363627 0)
(190.232 -0.273285 0)
(190.248 -0.171223 0)
(190.242 -0.0584348 0)
(191.032 -1.555 0)
(191.027 -1.43571 0)
(190.899 -1.45686 0)
(190.599 -1.61025 0)
(190.095 -1.2652 0)
(189.757 -1.15441 0)
(189.418 -1.43707 0)
(189.311 -1.56341 0)
(189.245 -1.35672 0)
(189.234 -1.27789 0)
(189.319 -1.41422 0)
(189.463 -1.38016 0)
(189.601 -1.35635 0)
(189.707 -1.34618 0)
(189.775 -1.34347 0)
(189.819 -1.32961 0)
(189.849 -1.30575 0)
(189.876 -1.28783 0)
(189.898 -1.26669 0)
(189.922 -1.24775 0)
(189.949 -1.22499 0)
(189.98 -1.20482 0)
(190.01 -1.18279 0)
(190.041 -1.16004 0)
(190.069 -1.13329 0)
(190.095 -1.10481 0)
(190.119 -1.07386 0)
(190.143 -1.04179 0)
(190.166 -1.00695 0)
(190.19 -0.969196 0)
(190.213 -0.92884 0)
(190.235 -0.886554 0)
(190.254 -0.841965 0)
(190.272 -0.794223 0)
(190.288 -0.741169 0)
(190.304 -0.680459 0)
(190.321 -0.609815 0)
(190.338 -0.528107 0)
(190.354 -0.435373 0)
(190.371 -0.329105 0)
(190.387 -0.207157 0)
(190.379 -0.0716936 0)
(191.625 -1.78259 0)
(191.641 -1.54067 0)
(191.547 -1.67784 0)
(191.122 -1.94639 0)
(190.614 -1.79601 0)
(190.164 -1.40528 0)
(189.777 -1.50584 0)
(189.572 -1.83601 0)
(189.458 -1.73825 0)
(189.436 -1.54206 0)
(189.49 -1.62853 0)
(189.67 -1.62487 0)
(189.843 -1.632 0)
(189.984 -1.6319 0)
(190.075 -1.58091 0)
(190.133 -1.55956 0)
(190.168 -1.56836 0)
(190.195 -1.54213 0)
(190.219 -1.50716 0)
(190.244 -1.48094 0)
(190.267 -1.45682 0)
(190.293 -1.43021 0)
(190.32 -1.40124 0)
(190.347 -1.37051 0)
(190.372 -1.33781 0)
(190.395 -1.30313 0)
(190.417 -1.26552 0)
(190.437 -1.22623 0)
(190.456 -1.18369 0)
(190.475 -1.13679 0)
(190.494 -1.08606 0)
(190.511 -1.03285 0)
(190.525 -0.97687 0)
(190.536 -0.916685 0)
(190.544 -0.850319 0)
(190.55 -0.77639 0)
(190.555 -0.69335 0)
(190.561 -0.599492 0)
(190.568 -0.493084 0)
(190.578 -0.373208 0)
(190.587 -0.235915 0)
(190.572 -0.0849865 0)
(192.242 -1.94119 0)
(192.242 -1.78629 0)
(192.089 -1.96525 0)
(191.745 -1.9845 0)
(191.167 -2.21829 0)
(190.612 -2.00183 0)
(190.22 -1.70433 0)
(189.856 -1.84233 0)
(189.719 -2.05767 0)
(189.631 -1.93547 0)
(189.677 -1.85097 0)
(189.846 -1.85335 0)
(190.055 -1.8783 0)
(190.228 -1.91971 0)
(190.353 -1.85191 0)
(190.436 -1.79772 0)
(190.481 -1.80224 0)
(190.514 -1.79756 0)
(190.541 -1.75543 0)
(190.571 -1.71513 0)
(190.595 -1.68568 0)
(190.618 -1.65514 0)
(190.644 -1.61814 0)
(190.671 -1.5779 0)
(190.697 -1.53638 0)
(190.721 -1.49273 0)
(190.745 -1.44529 0)
(190.767 -1.39455 0)
(190.788 -1.34034 0)
(190.808 -1.28156 0)
(190.826 -1.2186 0)
(190.842 -1.15244 0)
(190.855 -1.08248 0)
(190.864 -1.00723 0)
(190.868 -0.925296 0)
(190.868 -0.836038 0)
(190.865 -0.738812 0)
(190.862 -0.632947 0)
(190.859 -0.516575 0)
(190.862 -0.388922 0)
(190.862 -0.244646 0)
(190.845 -0.0913752 0)
(192.823 -2.21489 0)
(192.817 -2.26878 0)
(192.685 -2.30073 0)
(192.35 -2.07598 0)
(191.671 -2.34722 0)
(191.106 -2.41373 0)
(190.551 -2.17005 0)
(190.201 -2.01738 0)
(189.939 -2.22944 0)
(189.843 -2.25034 0)
(189.885 -2.14462 0)
(190.063 -2.10201 0)
(190.297 -2.09177 0)
(190.49 -2.16784 0)
(190.646 -2.11995 0)
(190.744 -2.03509 0)
(190.813 -2.00329 0)
(190.854 -2.01729 0)
(190.885 -1.97589 0)
(190.92 -1.91952 0)
(190.952 -1.87758 0)
(190.976 -1.83998 0)
(191.002 -1.79357 0)
(191.031 -1.74173 0)
(191.059 -1.68754 0)
(191.086 -1.63183 0)
(191.112 -1.57202 0)
(191.138 -1.50748 0)
(191.161 -1.43932 0)
(191.183 -1.36706 0)
(191.202 -1.29058 0)
(191.218 -1.21022 0)
(191.231 -1.12534 0)
(191.239 -1.03491 0)
(191.244 -0.93838 0)
(191.244 -0.835786 0)
(191.239 -0.727046 0)
(191.232 -0.612755 0)
(191.223 -0.492365 0)
(191.221 -0.366077 0)
(191.211 -0.227732 0)
(191.194 -0.0897157 0)
(193.463 -2.74542 0)
(193.483 -2.77359 0)
(193.241 -2.5788 0)
(192.885 -2.66288 0)
(192.207 -2.34151 0)
(191.541 -2.34166 0)
(190.888 -2.58976 0)
(190.457 -2.53931 0)
(190.229 -2.38644 0)
(190.178 -2.37095 0)
(190.267 -2.42458 0)
(190.443 -2.39818 0)
(190.641 -2.29326 0)
(190.824 -2.32325 0)
(190.98 -2.34058 0)
(191.091 -2.25632 0)
(191.176 -2.19481 0)
(191.231 -2.19353 0)
(191.268 -2.1553 0)
(191.306 -2.09091 0)
(191.343 -2.03554 0)
(191.37 -1.98655 0)
(191.397 -1.93123 0)
(191.427 -1.86746 0)
(191.457 -1.80065 0)
(191.486 -1.73194 0)
(191.515 -1.65909 0)
(191.543 -1.58076 0)
(191.569 -1.49839 0)
(191.592 -1.41208 0)
(191.612 -1.32129 0)
(191.629 -1.22609 0)
(191.642 -1.12643 0)
(191.652 -1.02207 0)
(191.659 -0.913073 0)
(191.661 -0.799967 0)
(191.659 -0.683127 0)
(191.653 -0.563922 0)
(191.643 -0.44317 0)
(191.643 -0.322877 0)
(191.627 -0.196456 0)
(191.614 -0.0818125 0)
(194.146 -2.90342 0)
(194.135 -2.67856 0)
(193.992 -2.81049 0)
(193.446 -2.99143 0)
(192.814 -2.9262 0)
(192.063 -2.62345 0)
(191.394 -2.58393 0)
(190.874 -2.78397 0)
(190.589 -2.71916 0)
(190.541 -2.59802 0)
(190.644 -2.57087 0)
(190.815 -2.66102 0)
(191.003 -2.56865 0)
(191.196 -2.4814 0)
(191.349 -2.51099 0)
(191.476 -2.49081 0)
(191.57 -2.4069 0)
(191.644 -2.34678 0)
(191.696 -2.31833 0)
(191.734 -2.25902 0)
(191.772 -2.18607 0)
(191.804 -2.11729 0)
(191.832 -2.05114 0)
(191.861 -1.97693 0)
(191.893 -1.89663 0)
(191.924 -1.81276 0)
(191.954 -1.72561 0)
(191.983 -1.63349 0)
(192.011 -1.5366 0)
(192.036 -1.43568 0)
(192.057 -1.33057 0)
(192.075 -1.22128 0)
(192.09 -1.10825 0)
(192.103 -0.992075 0)
(192.113 -0.873352 0)
(192.12 -0.753007 0)
(192.122 -0.631947 0)
(192.121 -0.511787 0)
(192.115 -0.393754 0)
(192.12 -0.281387 0)
(192.102 -0.166999 0)
(192.098 -0.0725182 0)
(194.845 -3.08356 0)
(194.815 -3.12466 0)
(194.629 -3.15908 0)
(194.2 -2.94225 0)
(193.402 -3.1725 0)
(192.634 -3.16172 0)
(191.883 -2.91058 0)
(191.345 -2.85495 0)
(191.054 -2.97557 0)
(191.009 -2.94017 0)
(191.087 -2.77206 0)
(191.239 -2.81993 0)
(191.438 -2.85777 0)
(191.614 -2.70692 0)
(191.787 -2.66005 0)
(191.919 -2.69415 0)
(192.021 -2.61663 0)
(192.104 -2.52309 0)
(192.172 -2.46894 0)
(192.215 -2.41942 0)
(192.251 -2.33761 0)
(192.283 -2.25188 0)
(192.312 -2.17185 0)
(192.34 -2.08907 0)
(192.37 -1.99691 0)
(192.401 -1.90007 0)
(192.43 -1.80031 0)
(192.459 -1.6961 0)
(192.487 -1.58671 0)
(192.513 -1.4732 0)
(192.536 -1.35601 0)
(192.557 -1.23517 0)
(192.575 -1.11145 0)
(192.592 -0.986017 0)
(192.606 -0.859942 0)
(192.619 -0.734469 0)
(192.628 -0.610849 0)
(192.634 -0.490473 0)
(192.635 -0.373914 0)
(192.65 -0.265175 0)
(192.631 -0.15563 0)
(192.639 -0.0663621 0)
(195.525 -3.57197 0)
(195.533 -3.54898 0)
(195.248 -3.37311 0)
(194.775 -3.52026 0)
(193.969 -3.22131 0)
(193.162 -3.15867 0)
(192.42 -3.35486 0)
(191.916 -3.2454 0)
(191.665 -3.10134 0)
(191.575 -3.18613 0)
(191.612 -3.05768 0)
(191.757 -3.01337 0)
(191.935 -3.07657 0)
(192.097 -2.93466 0)
(192.269 -2.86758 0)
(192.411 -2.8897 0)
(192.518 -2.80626 0)
(192.607 -2.71056 0)
(192.683 -2.65453 0)
(192.733 -2.59362 0)
(192.771 -2.50171 0)
(192.803 -2.40866 0)
(192.83 -2.32114 0)
(192.855 -2.22819 0)
(192.884 -2.12599 0)
(192.913 -2.01993 0)
(192.942 -1.91086 0)
(192.97 -1.79657 0)
(192.998 -1.67711 0)
(193.025 -1.55407 0)
(193.051 -1.42762 0)
(193.076 -1.29788 0)
(193.099 -1.16586 0)
(193.121 -1.03288 0)
(193.143 -0.900199 0)
(193.162 -0.769123 0)
(193.18 -0.640907 0)
(193.196 -0.516575 0)
(193.206 -0.395741 0)
(193.23 -0.281898 0)
(193.213 -0.166698 0)
(193.234 -0.0655709 0)
(196.198 -3.68466 0)
(196.154 -3.47764 0)
(195.956 -3.65782 0)
(195.382 -3.76748 0)
(194.629 -3.73286 0)
(193.79 -3.4237 0)
(193.023 -3.40938 0)
(192.497 -3.54296 0)
(192.213 -3.39809 0)
(192.138 -3.3955 0)
(192.186 -3.31168 0)
(192.316 -3.30412 0)
(192.485 -3.26928 0)
(192.647 -3.1601 0)
(192.806 -3.13798 0)
(192.947 -3.09566 0)
(193.055 -3.00246 0)
(193.149 -2.9346 0)
(193.224 -2.87233 0)
(193.276 -2.78623 0)
(193.317 -2.69453 0)
(193.35 -2.60513 0)
(193.374 -2.50945 0)
(193.399 -2.40714 0)
(193.427 -2.29936 0)
(193.456 -2.18778 0)
(193.485 -2.07055 0)
(193.514 -1.94776 0)
(193.544 -1.82109 0)
(193.575 -1.69029 0)
(193.606 -1.55574 0)
(193.636 -1.41803 0)
(193.667 -1.27829 0)
(193.697 -1.13765 0)
(193.726 -0.997168 0)
(193.755 -0.857814 0)
(193.783 -0.720533 0)
(193.809 -0.586085 0)
(193.829 -0.453526 0)
(193.862 -0.325664 0)
(193.849 -0.195647 0)
(193.879 -0.0707181 0)
(197.004 -3.86833 0)
(196.94 -3.6567 0)
(196.676 -3.94989 0)
(196.109 -4.05171 0)
(195.312 -4.12468 0)
(194.34 -3.75508 0)
(193.55 -3.52025 0)
(192.955 -3.84198 0)
(192.704 -3.76413 0)
(192.688 -3.59566 0)
(192.782 -3.60804 0)
(192.927 -3.58848 0)
(193.075 -3.47776 0)
(193.23 -3.44049 0)
(193.38 -3.40534 0)
(193.507 -3.31851 0)
(193.618 -3.25056 0)
(193.712 -3.18762 0)
(193.784 -3.10395 0)
(193.842 -3.01635 0)
(193.887 -2.92858 0)
(193.92 -2.83169 0)
(193.945 -2.7299 0)
(193.971 -2.62277 0)
(194.003 -2.51157 0)
(194.035 -2.39415 0)
(194.067 -2.26998 0)
(194.1 -2.14066 0)
(194.134 -2.00702 0)
(194.17 -1.86911 0)
(194.208 -1.72731 0)
(194.247 -1.5822 0)
(194.285 -1.43447 0)
(194.324 -1.28498 0)
(194.363 -1.13462 0)
(194.401 -0.983907 0)
(194.438 -0.833342 0)
(194.475 -0.683808 0)
(194.506 -0.534188 0)
(194.547 -0.386102 0)
(194.538 -0.231321 0)
(194.574 -0.0808961 0)
(197.54 -4.15625 0)
(197.483 -4.18658 0)
(197.185 -4.27238 0)
(196.644 -4.07513 0)
(195.821 -4.28892 0)
(194.923 -4.12802 0)
(194.224 -3.91657 0)
(193.712 -4.04117 0)
(193.439 -3.97552 0)
(193.362 -3.84911 0)
(193.414 -3.88017 0)
(193.525 -3.79392 0)
(193.667 -3.72857 0)
(193.82 -3.72782 0)
(193.96 -3.64088 0)
(194.091 -3.56264 0)
(194.207 -3.51333 0)
(194.3 -3.43498 0)
(194.378 -3.34692 0)
(194.442 -3.26274 0)
(194.491 -3.16988 0)
(194.526 -3.06773 0)
(194.554 -2.96185 0)
(194.584 -2.85218 0)
(194.62 -2.73736 0)
(194.658 -2.6152 0)
(194.696 -2.48674 0)
(194.734 -2.35293 0)
(194.775 -2.21368 0)
(194.818 -2.06923 0)
(194.863 -1.92025 0)
(194.91 -1.76744 0)
(194.957 -1.61131 0)
(195.004 -1.45212 0)
(195.052 -1.29034 0)
(195.099 -1.12634 0)
(195.144 -0.960311 0)
(195.191 -0.793023 0)
(195.231 -0.622815 0)
(195.279 -0.45122 0)
(195.275 -0.270942 0)
(195.314 -0.091616 0)
(198.264 -4.62301 0)
(198.214 -4.38629 0)
(197.94 -4.45015 0)
(197.346 -4.6566 0)
(196.418 -4.35286 0)
(195.606 -4.12143 0)
(194.823 -4.33299 0)
(194.339 -4.29373 0)
(194.069 -4.13251 0)
(193.972 -4.14328 0)
(194.011 -4.13428 0)
(194.117 -4.03226 0)
(194.264 -4.01718 0)
(194.424 -3.96829 0)
(194.573 -3.87598 0)
(194.712 -3.82426 0)
(194.832 -3.7565 0)
(194.932 -3.66845 0)
(195.018 -3.58739 0)
(195.087 -3.49832 0)
(195.141 -3.39732 0)
(195.179 -3.29321 0)
(195.21 -3.18615 0)
(195.244 -3.07344 0)
(195.286 -2.9543 0)
(195.332 -2.82887 0)
(195.377 -2.69752 0)
(195.422 -2.55937 0)
(195.47 -2.41431 0)
(195.52 -2.26331 0)
(195.572 -2.10738 0)
(195.625 -1.94724 0)
(195.68 -1.78291 0)
(195.735 -1.61392 0)
(195.79 -1.44036 0)
(195.845 -1.26268 0)
(195.897 -1.0809 0)
(195.95 -0.895871 0)
(195.996 -0.705743 0)
(196.05 -0.512082 0)
(196.051 -0.308712 0)
(196.089 -0.101907 0)
(199.199 -4.67394 0)
(199.111 -4.43651 0)
(198.86 -4.71218 0)
(198.207 -4.85056 0)
(197.328 -4.78892 0)
(196.298 -4.42934 0)
(195.429 -4.3219 0)
(194.829 -4.55281 0)
(194.554 -4.41675 0)
(194.502 -4.36045 0)
(194.587 -4.32978 0)
(194.736 -4.28639 0)
(194.911 -4.26027 0)
(195.082 -4.17669 0)
(195.244 -4.11988 0)
(195.389 -4.06387 0)
(195.512 -3.97693 0)
(195.619 -3.89859 0)
(195.71 -3.81605 0)
(195.787 -3.72106 0)
(195.844 -3.61533 0)
(195.885 -3.51014 0)
(195.92 -3.39984 0)
(195.958 -3.28233 0)
(196.005 -3.15865 0)
(196.057 -3.02955 0)
(196.108 -2.894 0)
(196.16 -2.75121 0)
(196.214 -2.60124 0)
(196.27 -2.44412 0)
(196.328 -2.28066 0)
(196.388 -2.11245 0)
(196.448 -1.93973 0)
(196.508 -1.76147 0)
(196.569 -1.5771 0)
(196.628 -1.38696 0)
(196.684 -1.19095 0)
(196.741 -0.990055 0)
(196.791 -0.782347 0)
(196.846 -0.568832 0)
(196.851 -0.344894 0)
(196.886 -0.112378 0)
(200.112 -5.03788 0)
(200.022 -5.22877 0)
(199.759 -5.01322 0)
(199.083 -4.71773 0)
(198.088 -4.92069 0)
(197.084 -4.95759 0)
(196.168 -4.72127 0)
(195.55 -4.65601 0)
(195.221 -4.68891 0)
(195.163 -4.62965 0)
(195.265 -4.55785 0)
(195.441 -4.54167 0)
(195.637 -4.47349 0)
(195.824 -4.40985 0)
(195.994 -4.36345 0)
(196.14 -4.27956 0)
(196.267 -4.20108 0)
(196.378 -4.12964 0)
(196.47 -4.03455 0)
(196.555 -3.93981 0)
(196.611 -3.83289 0)
(196.652 -3.72672 0)
(196.689 -3.61235 0)
(196.729 -3.49026 0)
(196.779 -3.36334 0)
(196.833 -3.23033 0)
(196.889 -3.08921 0)
(196.945 -2.94103 0)
(197.002 -2.7867 0)
(197.062 -2.6252 0)
(197.124 -2.45625 0)
(197.187 -2.28079 0)
(197.251 -2.09897 0)
(197.315 -1.91021 0)
(197.378 -1.71417 0)
(197.441 -1.51113 0)
(197.5 -1.30077 0)
(197.558 -1.08403 0)
(197.608 -0.85913 0)
(197.663 -0.626148 0)
(197.671 -0.382056 0)
(197.698 -0.124064 0)
(201.08 -5.18527 0)
(200.979 -5.09626 0)
(200.599 -5.25894 0)
(199.949 -5.2074 0)
(199.008 -5.30366 0)
(197.871 -5.04698 0)
(196.999 -4.8523 0)
(196.389 -5.00056 0)
(196.101 -4.93465 0)
(196.03 -4.82726 0)
(196.115 -4.81038 0)
(196.286 -4.76122 0)
(196.476 -4.68461 0)
(196.661 -4.64864 0)
(196.826 -4.57493 0)
(196.969 -4.49203 0)
(197.096 -4.43 0)
(197.205 -4.34987 0)
(197.298 -4.25188 0)
(197.386 -4.16233 0)
(197.443 -4.05518 0)
(197.482 -3.94627 0)
(197.518 -3.82987 0)
(197.557 -3.70733 0)
(197.605 -3.57926 0)
(197.66 -3.44326 0)
(197.716 -3.29831 0)
(197.775 -3.14588 0)
(197.834 -2.98607 0)
(197.896 -2.81799 0)
(197.96 -2.64172 0)
(198.024 -2.45754 0)
(198.089 -2.26519 0)
(198.154 -2.06501 0)
(198.219 -1.85737 0)
(198.282 -1.64203 0)
(198.34 -1.4177 0)
(198.397 -1.18475 0)
(198.446 -0.941875 0)
(198.499 -0.688441 0)
(198.509 -0.422643 0)
(198.529 -0.137643 0)
(202.187 -5.34203 0)
(202.124 -5.41826 0)
(201.726 -5.46018 0)
(201.132 -5.26256 0)
(200.088 -5.62494 0)
(198.91 -5.43865 0)
(197.927 -4.98853 0)
(197.093 -5.10242 0)
(196.81 -5.20326 0)
(196.821 -5.0566 0)
(196.973 -5.0567 0)
(197.178 -4.97678 0)
(197.374 -4.93519 0)
(197.553 -4.9097 0)
(197.708 -4.80762 0)
(197.85 -4.74192 0)
(197.973 -4.67526 0)
(198.081 -4.58207 0)
(198.179 -4.49122 0)
(198.269 -4.40256 0)
(198.331 -4.29137 0)
(198.37 -4.17777 0)
(198.403 -4.05935 0)
(198.443 -3.93572 0)
(198.489 -3.80358 0)
(198.543 -3.66253 0)
(198.598 -3.5148 0)
(198.655 -3.36096 0)
(198.713 -3.19888 0)
(198.772 -3.02726 0)
(198.834 -2.846 0)
(198.896 -2.65461 0)
(198.959 -2.45289 0)
(199.023 -2.24186 0)
(199.086 -2.02227 0)
(199.148 -1.79348 0)
(199.206 -1.55364 0)
(199.261 -1.30258 0)
(199.309 -1.03935 0)
(199.36 -0.76258 0)
(199.373 -0.470657 0)
(199.385 -0.153988 0)
(203.353 -5.80203 0)
(203.267 -6.13564 0)
(202.99 -5.7234 0)
(202.314 -5.32375 0)
(201.174 -5.51989 0)
(200.02 -5.78954 0)
(198.823 -5.56707 0)
(198.026 -5.2197 0)
(197.618 -5.34101 0)
(197.653 -5.35865 0)
(197.857 -5.30109 0)
(198.094 -5.19123 0)
(198.307 -5.18972 0)
(198.493 -5.14771 0)
(198.648 -5.04415 0)
(198.788 -4.98144 0)
(198.908 -4.90596 0)
(199.016 -4.82459 0)
(199.114 -4.73832 0)
(199.199 -4.64231 0)
(199.269 -4.54151 0)
(199.307 -4.42653 0)
(199.331 -4.31225 0)
(199.368 -4.18864 0)
(199.411 -4.05331 0)
(199.462 -3.91111 0)
(199.516 -3.76354 0)
(199.57 -3.60711 0)
(199.626 -3.4394 0)
(199.683 -3.26113 0)
(199.742 -3.07273 0)
(199.802 -2.87323 0)
(199.863 -2.66229 0)
(199.925 -2.44045 0)
(199.987 -2.20762 0)
(200.047 -1.96293 0)
(200.104 -1.70483 0)
(200.158 -1.43303 0)
(200.207 -1.14681 0)
(200.256 -0.844225 0)
(200.271 -0.52308 0)
(200.276 -0.171888 0)
(204.625 -6.26275 0)
(204.6 -6.19851 0)
(204.168 -6.03234 0)
(203.499 -6.00611 0)
(202.417 -5.63398 0)
(201.095 -5.6194 0)
(199.9 -5.85383 0)
(198.989 -5.64156 0)
(198.557 -5.47026 0)
(198.504 -5.5537 0)
(198.71 -5.50288 0)
(198.979 -5.43569 0)
(199.231 -5.44252 0)
(199.439 -5.37466 0)
(199.609 -5.30084 0)
(199.752 -5.22967 0)
(199.875 -5.1646 0)
(199.988 -5.10336 0)
(200.082 -5.00121 0)
(200.17 -4.89671 0)
(200.245 -4.80505 0)
(200.283 -4.69612 0)
(200.301 -4.58084 0)
(200.334 -4.45269 0)
(200.374 -4.31356 0)
(200.422 -4.17225 0)
(200.473 -4.02496 0)
(200.524 -3.86532 0)
(200.577 -3.69226 0)
(200.632 -3.50764 0)
(200.689 -3.31156 0)
(200.747 -3.10317 0)
(200.807 -2.88205 0)
(200.868 -2.6479 0)
(200.928 -2.40023 0)
(200.987 -2.13863 0)
(201.042 -1.86186 0)
(201.096 -1.56877 0)
(201.144 -1.25784 0)
(201.192 -0.927126 0)
(201.209 -0.574963 0)
(201.207 -0.189662 0)
(206.097 -6.20329 0)
(205.92 -5.93807 0)
(205.497 -6.28525 0)
(204.724 -6.46228 0)
(203.573 -6.22183 0)
(202.336 -5.79566 0)
(201.011 -5.82807 0)
(200.046 -6.002 0)
(199.461 -5.76948 0)
(199.336 -5.76993 0)
(199.554 -5.73151 0)
(199.871 -5.72666 0)
(200.17 -5.67879 0)
(200.41 -5.60797 0)
(200.6 -5.57385 0)
(200.75 -5.4879 0)
(200.88 -5.4301 0)
(200.995 -5.37438 0)
(201.087 -5.26481 0)
(201.178 -5.16256 0)
(201.256 -5.07535 0)
(201.295 -4.96495 0)
(201.306 -4.84602 0)
(201.335 -4.71547 0)
(201.372 -4.5783 0)
(201.418 -4.43792 0)
(201.468 -4.28743 0)
(201.517 -4.12269 0)
(201.567 -3.9446 0)
(201.62 -3.75376 0)
(201.676 -3.54978 0)
(201.734 -3.3327 0)
(201.793 -3.10155 0)
(201.853 -2.85448 0)
(201.912 -2.59051 0)
(201.97 -2.31025 0)
(202.025 -2.01356 0)
(202.079 -1.69878 0)
(202.126 -1.36306 0)
(202.172 -1.00412 0)
(202.19 -0.621564 0)
(202.182 -0.205607 0)
(207.278 -6.5656 0)
(207.156 -6.1874 0)
(206.767 -6.62971 0)
(205.94 -6.75415 0)
(204.773 -6.43801 0)
(203.577 -5.95047 0)
(202.163 -6.10216 0)
(201.185 -6.37439 0)
(200.465 -6.02107 0)
(200.275 -5.96987 0)
(200.491 -6.00315 0)
(200.833 -5.97709 0)
(201.151 -5.90059 0)
(201.412 -5.86546 0)
(201.619 -5.80579 0)
(201.781 -5.72458 0)
(201.919 -5.68454 0)
(202.033 -5.60213 0)
(202.13 -5.49847 0)
(202.221 -5.41345 0)
(202.298 -5.32362 0)
(202.341 -5.20695 0)
(202.352 -5.08425 0)
(202.374 -4.95802 0)
(202.41 -4.82591 0)
(202.455 -4.68341 0)
(202.504 -4.52681 0)
(202.552 -4.35745 0)
(202.601 -4.1757 0)
(202.653 -3.97922 0)
(202.709 -3.76714 0)
(202.766 -3.54013 0)
(202.824 -3.29755 0)
(202.883 -3.03766 0)
(202.941 -2.75924 0)
(202.999 -2.46235 0)
(203.053 -2.14652 0)
(203.106 -1.81021 0)
(203.152 -1.45098 0)
(203.197 -1.06708 0)
(203.216 -0.658907 0)
(203.203 -0.218515 0)
(208.371 -6.71515 0)
(208.265 -6.40186 0)
(207.925 -6.73396 0)
(207.108 -6.86993 0)
(205.969 -6.72844 0)
(204.675 -6.34166 0)
(203.371 -6.27118 0)
(202.331 -6.44011 0)
(201.666 -6.31604 0)
(201.431 -6.19213 0)
(201.549 -6.19517 0)
(201.841 -6.15458 0)
(202.162 -6.1275 0)
(202.444 -6.0869 0)
(202.666 -5.99455 0)
(202.843 -5.96776 0)
(202.991 -5.91924 0)
(203.105 -5.80035 0)
(203.211 -5.72163 0)
(203.305 -5.65413 0)
(203.379 -5.54872 0)
(203.431 -5.42396 0)
(203.446 -5.29538 0)
(203.458 -5.16979 0)
(203.494 -5.03541 0)
(203.539 -4.88463 0)
(203.587 -4.72134 0)
(203.635 -4.54957 0)
(203.682 -4.36561 0)
(203.732 -4.16543 0)
(203.785 -3.94847 0)
(203.841 -3.71465 0)
(203.897 -3.46278 0)
(203.955 -3.19175 0)
(204.011 -2.90066 0)
(204.067 -2.58933 0)
(204.119 -2.25687 0)
(204.171 -1.90156 0)
(204.217 -1.52163 0)
(204.26 -1.11659 0)
(204.281 -0.687871 0)
(204.264 -0.228587 0)
(209.722 -7.05082 0)
(209.607 -7.30212 0)
(209.282 -6.90169 0)
(208.501 -6.5656 0)
(207.227 -6.72593 0)
(205.92 -6.92121 0)
(204.5 -6.73101 0)
(203.425 -6.38544 0)
(202.711 -6.50388 0)
(202.505 -6.50847 0)
(202.622 -6.40195 0)
(202.919 -6.34521 0)
(203.25 -6.38601 0)
(203.541 -6.26904 0)
(203.783 -6.17936 0)
(203.969 -6.20718 0)
(204.116 -6.10067 0)
(204.238 -5.96415 0)
(204.35 -5.91118 0)
(204.44 -5.83595 0)
(204.511 -5.70967 0)
(204.566 -5.58576 0)
(204.585 -5.46918 0)
(204.585 -5.34296 0)
(204.618 -5.20648 0)
(204.661 -5.05251 0)
(204.708 -4.88933 0)
(204.755 -4.71593 0)
(204.802 -4.5265 0)
(204.851 -4.32074 0)
(204.902 -4.09939 0)
(204.955 -3.85967 0)
(205.009 -3.59978 0)
(205.064 -3.32 0)
(205.118 -3.01925 0)
(205.172 -2.69597 0)
(205.222 -2.34897 0)
(205.272 -1.97755 0)
(205.316 -1.58117 0)
(205.359 -1.15961 0)
(205.381 -0.713881 0)
(205.361 -0.237401 0)
(211.111 -7.18936 0)
(210.982 -6.92921 0)
(210.625 -7.14404 0)
(209.78 -7.21113 0)
(208.629 -7.14753 0)
(207.151 -6.85247 0)
(205.785 -6.5781 0)
(204.602 -6.7786 0)
(203.949 -6.70363 0)
(203.692 -6.59469 0)
(203.773 -6.51913 0)
(204.052 -6.48191 0)
(204.379 -6.53001 0)
(204.674 -6.38751 0)
(204.925 -6.33965 0)
(205.123 -6.3573 0)
(205.264 -6.21353 0)
(205.394 -6.12474 0)
(205.507 -6.09877 0)
(205.592 -5.99279 0)
(205.668 -5.85849 0)
(205.73 -5.74573 0)
(205.755 -5.63403 0)
(205.75 -5.5005 0)
(205.78 -5.3521 0)
(205.822 -5.19541 0)
(205.869 -5.03592 0)
(205.915 -4.8621 0)
(205.96 -4.66708 0)
(206.008 -4.45597 0)
(206.056 -4.23069 0)
(206.105 -3.98618 0)
(206.156 -3.72028 0)
(206.208 -3.43407 0)
(206.259 -3.12618 0)
(206.31 -2.79372 0)
(206.357 -2.43488 0)
(206.405 -2.04989 0)
(206.449 -1.63954 0)
(206.491 -1.20345 0)
(206.515 -0.741446 0)
(206.49 -0.246477 0)
(212.706 -7.36855 0)
(212.606 -7.58422 0)
(212.174 -7.32764 0)
(211.345 -7.05425 0)
(209.958 -7.28226 0)
(208.554 -7.29852 0)
(207.097 -6.96943 0)
(205.863 -6.79028 0)
(205.075 -6.89082 0)
(204.806 -6.86291 0)
(204.882 -6.71481 0)
(205.169 -6.71675 0)
(205.522 -6.7408 0)
(205.836 -6.59405 0)
(206.094 -6.58542 0)
(206.302 -6.547 0)
(206.454 -6.39348 0)
(206.591 -6.33604 0)
(206.706 -6.28128 0)
(206.788 -6.14174 0)
(206.869 -6.0156 0)
(206.934 -5.91631 0)
(206.96 -5.79971 0)
(206.95 -5.65676 0)
(206.977 -5.50129 0)
(207.018 -5.34459 0)
(207.063 -5.18229 0)
(207.108 -5.00229 0)
(207.152 -4.80245 0)
(207.197 -4.58905 0)
(207.242 -4.36021 0)
(207.288 -4.11054 0)
(207.335 -3.83908 0)
(207.384 -3.54706 0)
(207.432 -3.23276 0)
(207.48 -2.89261 0)
(207.525 -2.52404 0)
(207.571 -2.12765 0)
(207.614 -1.70476 0)
(207.656 -1.25412 0)
(207.683 -0.774103 0)
(207.653 -0.257073 0)
(213.914 -7.7712 0)
(213.809 -8.00201 0)
(213.459 -7.56936 0)
(212.62 -7.22907 0)
(211.411 -7.27514 0)
(209.901 -7.48388 0)
(208.453 -7.4211 0)
(207.226 -7.05859 0)
(206.428 -7.0006 0)
(206.118 -7.08448 0)
(206.184 -6.94405 0)
(206.455 -6.91995 0)
(206.796 -6.87438 0)
(207.105 -6.76805 0)
(207.359 -6.77056 0)
(207.558 -6.67851 0)
(207.717 -6.56307 0)
(207.852 -6.52295 0)
(207.958 -6.42929 0)
(208.045 -6.29678 0)
(208.126 -6.18779 0)
(208.185 -6.08509 0)
(208.211 -5.95741 0)
(208.201 -5.8101 0)
(208.22 -5.65818 0)
(208.255 -5.50267 0)
(208.297 -5.3337 0)
(208.339 -5.14536 0)
(208.38 -4.94156 0)
(208.421 -4.72531 0)
(208.462 -4.49254 0)
(208.503 -4.23917 0)
(208.547 -3.964 0)
(208.593 -3.66682 0)
(208.638 -3.34631 0)
(208.683 -2.99968 0)
(208.726 -2.62384 0)
(208.772 -2.21789 0)
(208.815 -1.78193 0)
(208.857 -1.3143 0)
(208.885 -0.813069 0)
(208.851 -0.269931 0)
(215.454 -7.78862 0)
(215.253 -7.48679 0)
(214.842 -7.83741 0)
(213.986 -7.93408 0)
(212.697 -7.67842 0)
(211.334 -7.28161 0)
(209.799 -7.4202 0)
(208.565 -7.42286 0)
(207.738 -7.20337 0)
(207.395 -7.1913 0)
(207.481 -7.15854 0)
(207.773 -7.13035 0)
(208.108 -7.0413 0)
(208.408 -6.98715 0)
(208.657 -6.96503 0)
(208.853 -6.85122 0)
(209.016 -6.75701 0)
(209.152 -6.69813 0)
(209.259 -6.60143 0)
(209.351 -6.48831 0)
(209.426 -6.37045 0)
(209.48 -6.24313 0)
(209.506 -6.10504 0)
(209.501 -5.96289 0)
(209.509 -5.80949 0)
(209.535 -5.64888 0)
(209.572 -5.47375 0)
(209.609 -5.28435 0)
(209.646 -5.08161 0)
(209.683 -4.86345 0)
(209.719 -4.62749 0)
(209.756 -4.37218 0)
(209.796 -4.0956 0)
(209.838 -3.79551 0)
(209.881 -3.46957 0)
(209.924 -3.11574 0)
(209.966 -2.73232 0)
(210.01 -2.31744 0)
(210.052 -1.86812 0)
(210.093 -1.38126 0)
(210.123 -0.855927 0)
(210.083 -0.284584 0)
(216.942 -8.07044 0)
(216.817 -7.58163 0)
(216.328 -8.11395 0)
(215.428 -8.26306 0)
(214.107 -7.90369 0)
(212.729 -7.37321 0)
(211.166 -7.56566 0)
(209.912 -7.64137 0)
(209.066 -7.40899 0)
(208.74 -7.32045 0)
(208.833 -7.31745 0)
(209.121 -7.29771 0)
(209.453 -7.20386 0)
(209.751 -7.17881 0)
(209.998 -7.11345 0)
(210.196 -7.00598 0)
(210.361 -6.9419 0)
(210.493 -6.86657 0)
(210.6 -6.76621 0)
(210.687 -6.65941 0)
(210.754 -6.53863 0)
(210.803 -6.40821 0)
(210.83 -6.27168 0)
(210.829 -6.12543 0)
(210.825 -5.96375 0)
(210.846 -5.79438 0)
(210.877 -5.61862 0)
(210.912 -5.43338 0)
(210.946 -5.23151 0)
(210.981 -5.00901 0)
(211.016 -4.76697 0)
(211.051 -4.50651 0)
(211.087 -4.22694 0)
(211.125 -3.92563 0)
(211.165 -3.59757 0)
(211.206 -3.23823 0)
(211.246 -2.84619 0)
(211.288 -2.42069 0)
(211.327 -1.95724 0)
(211.366 -1.45059 0)
(211.395 -0.900051 0)
(211.351 -0.300396 0)
(218.505 -8.50536 0)
(218.501 -8.18102 0)
(217.959 -8.23968 0)
(217.033 -8.31979 0)
(215.756 -7.78392 0)
(214.231 -7.59748 0)
(212.746 -7.88062 0)
(211.328 -7.71969 0)
(210.422 -7.49003 0)
(210.044 -7.4909 0)
(210.097 -7.45209 0)
(210.378 -7.41512 0)
(210.731 -7.36934 0)
(211.055 -7.3302 0)
(211.323 -7.25263 0)
(211.538 -7.17844 0)
(211.709 -7.09215 0)
(211.843 -7.00193 0)
(211.953 -6.92479 0)
(212.038 -6.82259 0)
(212.103 -6.69459 0)
(212.153 -6.56611 0)
(212.183 -6.43546 0)
(212.184 -6.28349 0)
(212.173 -6.11389 0)
(212.194 -5.93507 0)
(212.222 -5.75789 0)
(212.254 -5.57402 0)
(212.286 -5.37328 0)
(212.318 -5.15033 0)
(212.35 -4.90487 0)
(212.385 -4.63846 0)
(212.42 -4.3533 0)
(212.456 -4.04829 0)
(212.493 -3.71704 0)
(212.531 -3.35265 0)
(212.568 -2.95176 0)
(212.606 -2.51401 0)
(212.642 -2.0359 0)
(212.676 -1.51161 0)
(212.704 -0.939166 0)
(212.654 -0.315346 0)
(220.258 -8.61455 0)
(220.171 -8.18089 0)
(219.684 -8.45258 0)
(218.742 -8.59941 0)
(217.396 -8.09618 0)
(215.965 -7.71373 0)
(214.266 -7.98224 0)
(212.873 -8.01676 0)
(211.832 -7.65221 0)
(211.326 -7.61388 0)
(211.32 -7.62396 0)
(211.596 -7.57091 0)
(211.977 -7.51854 0)
(212.341 -7.47857 0)
(212.641 -7.42279 0)
(212.876 -7.33966 0)
(213.058 -7.25006 0)
(213.203 -7.16825 0)
(213.319 -7.0645 0)
(213.408 -6.94283 0)
(213.478 -6.82729 0)
(213.531 -6.71006 0)
(213.56 -6.57458 0)
(213.567 -6.41853 0)
(213.554 -6.24876 0)
(213.572 -6.07339 0)
(213.599 -5.88961 0)
(213.633 -5.69518 0)
(213.664 -5.48903 0)
(213.694 -5.26707 0)
(213.724 -5.02372 0)
(213.758 -4.75655 0)
(213.792 -4.46697 0)
(213.828 -4.15497 0)
(213.863 -3.81637 0)
(213.897 -3.44521 0)
(213.929 -3.0364 0)
(213.963 -2.5875 0)
(213.994 -2.09578 0)
(214.024 -1.55722 0)