/*--------------------------------*- C++ -*----------------------------------*\
| =========                 |                                                 |
| \\      /  F ield         | OpenFOAM: The Open Source CFD Toolbox           |
|  \\    /   O peration     | Version:  2412                                  |
|   \\  /    A nd           | Website:  www.openfoam.com                      |
|    \\/     M anipulation  |                                                 |
\*---------------------------------------------------------------------------*/
FoamFile
{
    version     2.0;
    format      ascii;
    arch        "LSB;label=32;scalar=64";
    class       volVectorField;
    location    "0.013";
    object      U_0;
}
// * * * * * * * * * * * * * * * * * * * * * * * * * * * * * * * * * * * * * //

dimensions      [0 1 -1 0 0 0 0];

internalField   nonuniform List<vector> 
8988
(
(189.1 -0.302723 0)
(189.117 -0.337458 0)
(189.103 -0.342995 0)
(189.082 -0.339062 0)
(189.095 -0.325238 0)
(189.119 -0.366542 0)
(189.142 -0.421194 0)
(189.174 -0.434927 0)
(189.193 -0.42133 0)
(189.204 -0.424938 0)
(189.205 -0.439161 0)
(189.211 -0.456137 0)
(189.218 -0.467349 0)
(189.225 -0.475431 0)
(189.233 -0.485967 0)
(189.242 -0.498658 0)
(189.254 -0.511449 0)
(189.271 -0.521899 0)
(189.29 -0.531114 0)
(189.309 -0.539526 0)
(189.328 -0.547291 0)
(189.347 -0.553724 0)
(189.365 -0.560293 0)
(189.384 -0.564088 0)
(189.401 -0.571491 0)
(189.42 -0.575904 0)
(189.441 -0.577863 0)
(189.466 -0.578803 0)
(189.493 -0.580898 0)
(189.521 -0.57313 0)
(189.551 -0.56289 0)
(189.581 -0.54634 0)
(189.613 -0.52594 0)
(189.646 -0.500713 0)
(189.678 -0.470568 0)
(189.709 -0.432927 0)
(189.739 -0.387766 0)
(189.767 -0.334696 0)
(189.791 -0.273684 0)
(189.811 -0.204841 0)
(189.825 -0.128428 0)
(189.832 -0.0442623 0)
(189 -0.562929 0)
(188.983 -0.716839 0)
(188.803 -0.517698 0)
(188.725 -0.407993 0)
(188.688 -0.689567 0)
(188.746 -0.5914 0)
(188.827 -0.443028 0)
(188.864 -0.510963 0)
(188.917 -0.65072 0)
(188.951 -0.640058 0)
(188.976 -0.584357 0)
(189.006 -0.565974 0)
(189.035 -0.603627 0)
(189.056 -0.63696 0)
(189.075 -0.635019 0)
(189.102 -0.631859 0)
(189.132 -0.644967 0)
(189.165 -0.65073 0)
(189.198 -0.651498 0)
(189.232 -0.652957 0)
(189.266 -0.657254 0)
(189.301 -0.658989 0)
(189.335 -0.658939 0)
(189.369 -0.658322 0)
(189.407 -0.660812 0)
(189.453 -0.664105 0)
(189.503 -0.654612 0)
(189.552 -0.647128 0)
(189.599 -0.635181 0)
(189.643 -0.620615 0)
(189.686 -0.603603 0)
(189.725 -0.579874 0)
(189.765 -0.552265 0)
(189.803 -0.519066 0)
(189.842 -0.481586 0)
(189.88 -0.439284 0)
(189.917 -0.390405 0)
(189.951 -0.334261 0)
(189.981 -0.270972 0)
(190.005 -0.201006 0)
(190.023 -0.124695 0)
(190.031 -0.0423958 0)
(189.671 -0.848 0)
(189.648 -1.09449 0)
(189.572 -0.831724 0)
(189.368 -0.542512 0)
(189.089 -0.73953 0)
(188.96 -1.02997 0)
(188.913 -0.880558 0)
(188.937 -0.668732 0)
(188.957 -0.782743 0)
(189.031 -0.925664 0)
(189.069 -0.861018 0)
(189.112 -0.802181 0)
(189.143 -0.842031 0)
(189.186 -0.856591 0)
(189.225 -0.839267 0)
(189.263 -0.837139 0)
(189.298 -0.837279 0)
(189.329 -0.832503 0)
(189.361 -0.825461 0)
(189.393 -0.820396 0)
(189.426 -0.816303 0)
(189.459 -0.812063 0)
(189.494 -0.805159 0)
(189.529 -0.799444 0)
(189.564 -0.789698 0)
(189.599 -0.78035 0)
(189.634 -0.766597 0)
(189.67 -0.754056 0)
(189.705 -0.739677 0)
(189.741 -0.722973 0)
(189.78 -0.702135 0)
(189.82 -0.674241 0)
(189.863 -0.640655 0)
(189.907 -0.601812 0)
(189.951 -0.557033 0)
(189.995 -0.506024 0)
(190.036 -0.44755 0)
(190.071 -0.381582 0)
(190.099 -0.308842 0)
(190.121 -0.229558 0)
(190.139 -0.142412 0)
(190.14 -0.0474916 0)
(190.39 -1.24982 0)
(190.409 -1.43195 0)
(190.249 -1.17972 0)
(189.957 -1.01784 0)
(189.649 -0.875834 0)
(189.283 -1.12055 0)
(189.156 -1.292 0)
(189.077 -1.09653 0)
(189.074 -0.979541 0)
(189.103 -1.14371 0)
(189.172 -1.14508 0)
(189.263 -1.09771 0)
(189.358 -1.09998 0)
(189.43 -1.0993 0)
(189.482 -1.09313 0)
(189.522 -1.08302 0)
(189.551 -1.06561 0)
(189.578 -1.05246 0)
(189.604 -1.03885 0)
(189.633 -1.02606 0)
(189.662 -1.0118 0)
(189.695 -0.999257 0)
(189.728 -0.98463 0)
(189.763 -0.968862 0)
(189.795 -0.94973 0)
(189.826 -0.928142 0)
(189.855 -0.904034 0)
(189.886 -0.880575 0)
(189.917 -0.85374 0)
(189.949 -0.826057 0)
(189.981 -0.795595 0)
(190.013 -0.761158 0)
(190.045 -0.722516 0)
(190.077 -0.680232 0)
(190.108 -0.632985 0)
(190.138 -0.579072 0)
(190.166 -0.516565 0)
(190.191 -0.44469 0)
(190.213 -0.364034 0)
(190.233 -0.273606 0)
(190.249 -0.171433 0)
(190.242 -0.0584881 0)
(191.034 -1.57057 0)
(191.034 -1.50934 0)
(190.879 -1.47996 0)
(190.596 -1.57497 0)
(190.111 -1.1846 0)
(189.741 -1.18166 0)
(189.429 -1.51232 0)
(189.309 -1.54347 0)
(189.247 -1.316 0)
(189.226 -1.29258 0)
(189.323 -1.42371 0)
(189.462 -1.37633 0)
(189.6 -1.35581 0)
(189.706 -1.34755 0)
(189.774 -1.34461 0)
(189.818 -1.32968 0)
(189.848 -1.30612 0)
(189.875 -1.28864 0)
(189.897 -1.26761 0)
(189.922 -1.24861 0)
(189.948 -1.22595 0)
(189.979 -1.206 0)
(190.009 -1.18402 0)
(190.04 -1.16128 0)
(190.069 -1.13452 0)
(190.095 -1.10609 0)
(190.119 -1.07524 0)
(190.142 -1.04324 0)
(190.166 -1.0084 0)
(190.19 -0.970649 0)
(190.213 -0.930338 0)
(190.234 -0.888115 0)
(190.254 -0.843563 0)
(190.272 -0.795805 0)
(190.288 -0.74267 0)
(190.304 -0.681817 0)
(190.321 -0.610984 0)
(190.338 -0.529069 0)
(190.354 -0.436134 0)
(190.372 -0.329702 0)
(190.388 -0.207508 0)
(190.38 -0.071785 0)
(191.629 -1.81217 0)
(191.636 -1.60021 0)
(191.537 -1.69332 0)
(191.137 -1.94765 0)
(190.595 -1.73671 0)
(190.178 -1.37949 0)
(189.767 -1.56072 0)
(189.578 -1.85777 0)
(189.454 -1.71029 0)
(189.432 -1.52717 0)
(189.493 -1.64602 0)
(189.67 -1.62421 0)
(189.841 -1.6342 0)
(189.984 -1.62953 0)
(190.075 -1.57915 0)
(190.132 -1.56242 0)
(190.168 -1.57067 0)
(190.194 -1.54228 0)
(190.219 -1.50731 0)
(190.244 -1.48214 0)
(190.266 -1.45824 0)
(190.292 -1.43146 0)
(190.319 -1.40248 0)
(190.347 -1.3719 0)
(190.371 -1.33929 0)
(190.395 -1.30464 0)
(190.416 -1.26714 0)
(190.436 -1.22796 0)
(190.455 -1.18543 0)
(190.475 -1.13853 0)
(190.494 -1.08788 0)
(190.511 -1.03479 0)
(190.525 -0.978884 0)
(190.536 -0.918689 0)
(190.544 -0.852252 0)
(190.55 -0.778204 0)
(190.555 -0.69499 0)
(190.562 -0.600905 0)
(190.568 -0.494228 0)
(190.579 -0.37407 0)
(190.588 -0.236438 0)
(190.573 -0.0851142 0)
(192.239 -1.96843 0)
(192.241 -1.7679 0)
(192.108 -1.962 0)
(191.715 -2.05779 0)
(191.177 -2.19807 0)
(190.61 -1.93175 0)
(190.225 -1.70586 0)
(189.849 -1.89797 0)
(189.72 -2.05973 0)
(189.635 -1.90568 0)
(189.673 -1.85513 0)
(189.847 -1.85748 0)
(190.054 -1.88371 0)
(190.228 -1.91868 0)
(190.353 -1.84796 0)
(190.437 -1.7972 0)
(190.481 -1.80748 0)
(190.514 -1.79833 0)
(190.541 -1.75465 0)
(190.571 -1.71592 0)
(190.595 -1.68725 0)
(190.617 -1.65638 0)
(190.644 -1.61922 0)
(190.671 -1.57908 0)
(190.696 -1.5378 0)
(190.721 -1.4942 0)
(190.744 -1.4468 0)
(190.767 -1.39618 0)
(190.788 -1.34203 0)
(190.807 -1.28329 0)
(190.826 -1.22042 0)
(190.842 -1.15437 0)
(190.855 -1.08449 0)
(190.864 -1.00924 0)
(190.868 -0.927269 0)
(190.868 -0.837952 0)
(190.865 -0.740617 0)
(190.863 -0.634574 0)
(190.859 -0.517947 0)
(190.863 -0.389965 0)
(190.862 -0.245287 0)
(190.846 -0.09154 0)
(192.828 -2.21144 0)
(192.824 -2.20491 0)
(192.671 -2.29053 0)
(192.347 -2.11129 0)
(191.672 -2.40784 0)
(191.106 -2.39303 0)
(190.563 -2.10529 0)
(190.187 -2.03252 0)
(189.952 -2.26267 0)
(189.838 -2.23797 0)
(189.884 -2.14023 0)
(190.062 -2.10046 0)
(190.296 -2.09888 0)
(190.49 -2.17225 0)
(190.645 -2.11389 0)
(190.745 -2.03195 0)
(190.812 -2.00756 0)
(190.853 -2.02006 0)
(190.884 -1.97526 0)
(190.92 -1.9192 0)
(190.952 -1.87868 0)
(190.976 -1.84137 0)
(191.002 -1.79439 0)
(191.031 -1.74257 0)
(191.059 -1.68867 0)
(191.086 -1.63312 0)
(191.112 -1.5733 0)
(191.138 -1.50883 0)
(191.161 -1.4408 0)
(191.182 -1.36863 0)
(191.202 -1.29224 0)
(191.218 -1.21196 0)
(191.231 -1.12713 0)
(191.239 -1.03671 0)
(191.244 -0.940171 0)
(191.244 -0.83756 0)
(191.239 -0.728766 0)
(191.232 -0.614363 0)
(191.223 -0.493782 0)
(191.221 -0.367193 0)
(191.211 -0.228448 0)
(191.194 -0.0899162 0)
(193.456 -2.7411 0)
(193.488 -2.83383 0)
(193.241 -2.59122 0)
(192.877 -2.61039 0)
(192.23 -2.31071 0)
(191.518 -2.37698 0)
(190.901 -2.61343 0)
(190.454 -2.52038 0)
(190.229 -2.37904 0)
(190.177 -2.37827 0)
(190.269 -2.43029 0)
(190.442 -2.39069 0)
(190.642 -2.29303 0)
(190.823 -2.33084 0)
(190.98 -2.33786 0)
(191.091 -2.25303 0)
(191.177 -2.19589 0)
(191.231 -2.19728 0)
(191.268 -2.15505 0)
(191.306 -2.09032 0)
(191.343 -2.03615 0)
(191.37 -1.98793 0)
(191.397 -1.93194 0)
(191.427 -1.86812 0)
(191.457 -1.80153 0)
(191.486 -1.73307 0)
(191.515 -1.66021 0)
(191.543 -1.58192 0)
(191.569 -1.49969 0)
(191.592 -1.41349 0)
(191.612 -1.32276 0)
(191.629 -1.22763 0)
(191.642 -1.12801 0)
(191.652 -1.02366 0)
(191.659 -0.914673 0)
(191.661 -0.801555 0)
(191.659 -0.684671 0)
(191.653 -0.565373 0)
(191.643 -0.444463 0)
(191.642 -0.323907 0)
(191.627 -0.19714 0)
(191.614 -0.0820313 0)
(194.145 -2.93556 0)
(194.138 -2.71971 0)
(193.992 -2.80184 0)
(193.447 -3.02578 0)
(192.805 -2.8862 0)
(192.084 -2.58154 0)
(191.378 -2.61513 0)
(190.884 -2.80904 0)
(190.588 -2.69994 0)
(190.541 -2.59086 0)
(190.643 -2.58156 0)
(190.818 -2.66451 0)
(191.003 -2.55982 0)
(191.197 -2.48226 0)
(191.349 -2.51797 0)
(191.476 -2.48837 0)
(191.571 -2.40442 0)
(191.645 -2.34859 0)
(191.696 -2.32039 0)
(191.734 -2.2588 0)
(191.773 -2.18608 0)
(191.804 -2.11798 0)
(191.832 -2.05212 0)
(191.862 -1.9776 0)
(191.893 -1.89731 0)
(191.924 -1.81366 0)
(191.954 -1.72663 0)
(191.984 -1.63453 0)
(192.011 -1.53773 0)
(192.036 -1.43691 0)
(192.057 -1.33187 0)
(192.075 -1.22263 0)
(192.09 -1.10964 0)
(192.103 -0.993486 0)
(192.113 -0.874769 0)
(192.12 -0.754398 0)
(192.122 -0.633279 0)
(192.12 -0.513016 0)
(192.115 -0.39483 0)
(192.12 -0.282237 0)
(192.102 -0.16757 0)
(192.097 -0.0727371 0)
(194.851 -3.08091 0)
(194.824 -3.06849 0)
(194.62 -3.15065 0)
(194.198 -2.97579 0)
(193.412 -3.21435 0)
(192.624 -3.13691 0)
(191.898 -2.87373 0)
(191.341 -2.87769 0)
(191.057 -2.98591 0)
(191.006 -2.92722 0)
(191.089 -2.77036 0)
(191.239 -2.83279 0)
(191.438 -2.85152 0)
(191.616 -2.70089 0)
(191.787 -2.66574 0)
(191.921 -2.6979 0)
(192.022 -2.6133 0)
(192.106 -2.52135 0)
(192.173 -2.472 0)
(192.215 -2.42044 0)
(192.252 -2.33725 0)
(192.284 -2.25213 0)
(192.313 -2.17293 0)
(192.34 -2.08988 0)
(192.37 -1.99755 0)
(192.401 -1.90088 0)
(192.431 -1.80131 0)
(192.46 -1.69711 0)
(192.488 -1.58774 0)
(192.514 -1.47432 0)
(192.537 -1.35719 0)
(192.557 -1.23638 0)
(192.575 -1.11269 0)
(192.592 -0.987271 0)
(192.606 -0.861178 0)
(192.619 -0.735653 0)
(192.628 -0.611949 0)
(192.633 -0.491453 0)
(192.635 -0.374745 0)
(192.649 -0.265819 0)
(192.63 -0.156053 0)
(192.638 -0.0665673 0)
(195.524 -3.57649 0)
(195.538 -3.6033 0)
(195.24 -3.38855 0)
(194.773 -3.48008 0)
(193.992 -3.18565 0)
(193.147 -3.19286 0)
(192.428 -3.37332 0)
(191.917 -3.22289 0)
(191.663 -3.10366 0)
(191.577 -3.1922 0)
(191.615 -3.05079 0)
(191.756 -3.02117 0)
(191.936 -3.07576 0)
(192.098 -2.92858 0)
(192.27 -2.87189 0)
(192.413 -2.89327 0)
(192.518 -2.80322 0)
(192.608 -2.70959 0)
(192.685 -2.6576 0)
(192.734 -2.59431 0)
(192.772 -2.50136 0)
(192.804 -2.40906 0)
(192.83 -2.32237 0)
(192.856 -2.22894 0)
(192.884 -2.12668 0)
(192.914 -2.02076 0)
(192.942 -1.91186 0)
(192.97 -1.79751 0)
(192.998 -1.67807 0)
(193.026 -1.55511 0)
(193.052 -1.42868 0)
(193.076 -1.29895 0)
(193.099 -1.16692 0)
(193.121 -1.03392 0)
(193.142 -0.901184 0)
(193.162 -0.770031 0)
(193.18 -0.641718 0)
(193.195 -0.517272 0)
(193.205 -0.396318 0)
(193.229 -0.282344 0)
(193.212 -0.166974 0)
(193.232 -0.0657429 0)
(196.194 -3.71901 0)
(196.156 -3.48866 0)
(195.972 -3.64792 0)
(195.378 -3.81391 0)
(194.617 -3.70319 0)
(193.809 -3.38483 0)
(193.017 -3.44438 0)
(192.497 -3.54486 0)
(192.216 -3.38915 0)
(192.138 -3.39666 0)
(192.187 -3.31225 0)
(192.318 -3.30881 0)
(192.485 -3.26511 0)
(192.649 -3.15977 0)
(192.808 -3.14253 0)
(192.948 -3.09441 0)
(193.056 -3.00158 0)
(193.15 -2.93631 0)
(193.225 -2.87326 0)
(193.277 -2.78609 0)
(193.318 -2.69491 0)
(193.351 -2.60615 0)
(193.375 -2.51023 0)
(193.4 -2.40773 0)
(193.428 -2.30011 0)
(193.457 -2.18863 0)
(193.486 -2.07136 0)
(193.515 -1.94856 0)
(193.544 -1.82194 0)
(193.575 -1.69112 0)
(193.606 -1.55656 0)
(193.636 -1.41883 0)
(193.667 -1.27905 0)
(193.696 -1.13836 0)
(193.726 -0.997803 0)
(193.754 -0.858366 0)
(193.782 -0.720995 0)
(193.808 -0.586471 0)
(193.828 -0.453842 0)
(193.861 -0.325909 0)
(193.848 -0.1958 0)
(193.878 -0.070831 0)
(196.989 -3.92809 0)
(196.936 -3.63831 0)
(196.709 -3.95578 0)
(196.101 -4.13662 0)
(195.297 -4.08593 0)
(194.362 -3.65798 0)
(193.526 -3.55584 0)
(192.973 -3.89187 0)
(192.703 -3.73807 0)
(192.69 -3.59135 0)
(192.784 -3.61757 0)
(192.928 -3.58456 0)
(193.076 -3.47563 0)
(193.231 -3.44445 0)
(193.381 -3.40502 0)
(193.508 -3.31744 0)
(193.62 -3.25183 0)
(193.713 -3.18824 0)
(193.785 -3.10385 0)
(193.843 -3.01686 0)
(193.888 -2.92931 0)
(193.921 -2.83222 0)
(193.946 -2.7303 0)
(193.972 -2.62329 0)
(194.003 -2.51218 0)
(194.036 -2.39469 0)
(194.068 -2.27045 0)
(194.1 -2.14116 0)
(194.135 -2.00752 0)
(194.171 -1.86957 0)
(194.208 -1.72772 0)
(194.247 -1.58257 0)
(194.285 -1.43478 0)
(194.324 -1.28524 0)
(194.362 -1.13482 0)
(194.4 -0.984043 0)
(194.437 -0.833415 0)
(194.474 -0.683837 0)
(194.505 -0.534204 0)
(194.546 -0.38614 0)
(194.537 -0.23138 0)
(194.573 -0.0809492 0)
(197.544 -4.15549 0)
(197.49 -4.1206 0)
(197.184 -4.26761 0)
(196.64 -4.14658 0)
(195.821 -4.28702 0)
(194.924 -4.08218 0)
(194.226 -3.92756 0)
(193.717 -4.06092 0)
(193.437 -3.9614 0)
(193.363 -3.85007 0)
(193.416 -3.88412 0)
(193.525 -3.78915 0)
(193.667 -3.73209 0)
(193.821 -3.72945 0)
(193.961 -3.63809 0)
(194.092 -3.56356 0)
(194.208 -3.51462 0)
(194.301 -3.43445 0)
(194.379 -3.34701 0)
(194.443 -3.26326 0)
(194.492 -3.17001 0)
(194.527 -3.06775 0)
(194.555 -2.96194 0)
(194.584 -2.8524 0)
(194.621 -2.73749 0)
(194.659 -2.61523 0)
(194.696 -2.48677 0)
(194.735 -2.35294 0)
(194.776 -2.21363 0)
(194.819 -2.06913 0)
(194.864 -1.9201 0)
(194.91 -1.76725 0)
(194.957 -1.61108 0)
(195.004 -1.45185 0)
(195.052 -1.29004 0)
(195.098 -1.126 0)
(195.144 -0.95996 0)
(195.19 -0.79269 0)
(195.23 -0.622538 0)
(195.278 -0.451021 0)
(195.274 -0.270818 0)
(195.313 -0.0916194 0)
(198.262 -4.65648 0)
(198.228 -4.46394 0)
(197.915 -4.45112 0)
(197.349 -4.64659 0)
(196.437 -4.28339 0)
(195.597 -4.14797 0)
(194.831 -4.36703 0)
(194.338 -4.27233 0)
(194.069 -4.12678 0)
(193.973 -4.15275 0)
(194.011 -4.13042 0)
(194.118 -4.03091 0)
(194.265 -4.02072 0)
(194.425 -3.96558 0)
(194.574 -3.87504 0)
(194.714 -3.82562 0)
(194.833 -3.75569 0)
(194.933 -3.66785 0)
(195.019 -3.58747 0)
(195.087 -3.49795 0)
(195.142 -3.39695 0)
(195.18 -3.29279 0)
(195.211 -3.18584 0)
(195.245 -3.07305 0)
(195.287 -2.95378 0)
(195.332 -2.82836 0)
(195.377 -2.69699 0)
(195.423 -2.55873 0)
(195.47 -2.41358 0)
(195.52 -2.26254 0)
(195.572 -2.10661 0)
(195.625 -1.94648 0)
(195.68 -1.78214 0)
(195.735 -1.61312 0)
(195.79 -1.43954 0)
(195.844 -1.26188 0)
(195.896 -1.08015 0)
(195.949 -0.895199 0)
(195.996 -0.705174 0)
(196.049 -0.511639 0)
(196.05 -0.308404 0)
(196.089 -0.101845 0)
(199.192 -4.73386 0)
(199.103 -4.44438 0)
(198.885 -4.71361 0)
(198.208 -4.90395 0)
(197.311 -4.75367 0)
(196.321 -4.36393 0)
(195.414 -4.36364 0)
(194.834 -4.56909 0)
(194.556 -4.39906 0)
(194.501 -4.36127 0)
(194.587 -4.33053 0)
(194.737 -4.28763 0)
(194.912 -4.25924 0)
(195.083 -4.17483 0)
(195.245 -4.12093 0)
(195.39 -4.06314 0)
(195.512 -3.97577 0)
(195.62 -3.89847 0)
(195.711 -3.8154 0)
(195.787 -3.72003 0)
(195.844 -3.61449 0)
(195.886 -3.50934 0)
(195.921 -3.39895 0)
(195.959 -3.28126 0)
(196.006 -3.15756 0)
(196.057 -3.02849 0)
(196.109 -2.89287 0)
(196.16 -2.75 0)
(196.214 -2.59996 0)
(196.27 -2.44279 0)
(196.328 -2.27934 0)
(196.388 -2.11118 0)
(196.448 -1.93849 0)
(196.508 -1.76024 0)
(196.568 -1.57589 0)
(196.628 -1.38581 0)
(196.684 -1.1899 0)
(196.741 -0.989131 0)
(196.79 -0.781557 0)
(196.846 -0.568209 0)
(196.851 -0.344471 0)
(196.885 -0.112268 0)
(200.121 -5.00763 0)
(200.033 -5.15301 0)
(199.748 -5.02753 0)
(199.084 -4.73449 0)
(198.097 -4.95782 0)
(197.079 -4.94394 0)
(196.176 -4.69814 0)
(195.547 -4.66593 0)
(195.22 -4.69493 0)
(195.163 -4.62385 0)
(195.265 -4.55823 0)
(195.442 -4.54256 0)
(195.637 -4.47117 0)
(195.824 -4.41041 0)
(195.995 -4.36292 0)
(196.14 -4.27777 0)
(196.267 -4.20092 0)
(196.379 -4.12893 0)
(196.471 -4.03313 0)
(196.555 -3.93872 0)
(196.611 -3.83191 0)
(196.653 -3.72557 0)
(196.69 -3.61092 0)
(196.73 -3.48875 0)
(196.779 -3.3619 0)
(196.833 -3.22882 0)
(196.889 -3.08758 0)
(196.945 -2.9394 0)
(197.002 -2.7851 0)
(197.062 -2.62357 0)
(197.124 -2.45462 0)
(197.187 -2.2792 0)
(197.251 -2.09742 0)
(197.315 -1.90869 0)
(197.378 -1.71271 0)
(197.441 -1.50976 0)
(197.499 -1.29953 0)
(197.557 -1.08294 0)
(197.608 -0.858213 0)
(197.662 -0.625446 0)
(197.67 -0.381604 0)
(197.698 -0.123936 0)
(201.076 -5.21059 0)
(200.977 -5.04474 0)
(200.623 -5.25728 0)
(199.941 -5.29418 0)
(198.997 -5.28683 0)
(197.88 -4.97826 0)
(196.994 -4.87808 0)
(196.394 -5.02127 0)
(196.102 -4.92058 0)
(196.029 -4.82551 0)
(196.116 -4.81371 0)
(196.287 -4.75852 0)
(196.477 -4.68446 0)
(196.662 -4.64904 0)
(196.827 -4.57248 0)
(196.97 -4.49148 0)
(197.097 -4.43007 0)
(197.205 -4.34826 0)
(197.299 -4.2506 0)
(197.386 -4.1614 0)
(197.443 -4.054 0)
(197.482 -3.94486 0)
(197.518 -3.82832 0)
(197.557 -3.70583 0)
(197.606 -3.57774 0)
(197.66 -3.44158 0)
(197.717 -3.29654 0)
(197.775 -3.14413 0)
(197.835 -2.98431 0)
(197.896 -2.81619 0)
(197.96 -2.63993 0)
(198.024 -2.45577 0)
(198.089 -2.26345 0)
(198.154 -2.06334 0)
(198.218 -1.85582 0)
(198.282 -1.64058 0)
(198.34 -1.41637 0)
(198.397 -1.18359 0)
(198.446 -0.94093 0)
(198.499 -0.687754 0)
(198.509 -0.42223 0)
(198.528 -0.137519 0)
(202.206 -5.32899 0)
(202.122 -5.31047 0)
(201.715 -5.4595 0)
(201.115 -5.37829 0)
(200.105 -5.64282 0)
(198.892 -5.37648 0)
(197.942 -4.94894 0)
(197.087 -5.15769 0)
(196.817 -5.1943 0)
(196.82 -5.04727 0)
(196.973 -5.05908 0)
(197.178 -4.97466 0)
(197.374 -4.93848 0)
(197.553 -4.90835 0)
(197.708 -4.8049 0)
(197.85 -4.74239 0)
(197.974 -4.67404 0)
(198.081 -4.58035 0)
(198.18 -4.49051 0)
(198.269 -4.40148 0)
(198.331 -4.28997 0)
(198.371 -4.17624 0)
(198.403 -4.05789 0)
(198.443 -3.93423 0)
(198.49 -3.80187 0)
(198.543 -3.66072 0)
(198.599 -3.5131 0)
(198.655 -3.35933 0)
(198.713 -3.19719 0)
(198.772 -3.02551 0)
(198.834 -2.84423 0)
(198.896 -2.65282 0)
(198.959 -2.45111 0)
(199.023 -2.24018 0)
(199.086 -2.02072 0)
(199.148 -1.79203 0)
(199.205 -1.55232 0)
(199.261 -1.30144 0)
(199.309 -1.03845 0)
(199.36 -0.761954 0)
(199.373 -0.470292 0)
(199.385 -0.153867 0)
(203.359 -5.71786 0)
(203.278 -6.02762 0)
(202.98 -5.71054 0)
(202.328 -5.36333 0)
(201.15 -5.61295 0)
(200.025 -5.78393 0)
(198.834 -5.49314 0)
(198.019 -5.22439 0)
(197.619 -5.36725 0)
(197.655 -5.35584 0)
(197.856 -5.29196 0)
(198.094 -5.19029 0)
(198.308 -5.19425 0)
(198.492 -5.14444 0)
(198.648 -5.04161 0)
(198.788 -4.98149 0)
(198.908 -4.90504 0)
(199.017 -4.8238 0)
(199.114 -4.73726 0)
(199.199 -4.64114 0)
(199.269 -4.54056 0)
(199.307 -4.42557 0)
(199.331 -4.31111 0)
(199.368 -4.1871 0)
(199.411 -4.05155 0)
(199.462 -3.90954 0)
(199.516 -3.7621 0)
(199.57 -3.60555 0)
(199.626 -3.43768 0)
(199.683 -3.25938 0)
(199.742 -3.07097 0)
(199.802 -2.87147 0)
(199.863 -2.66056 0)
(199.925 -2.43881 0)
(199.986 -2.20609 0)
(200.047 -1.9615 0)
(200.104 -1.70354 0)
(200.158 -1.43194 0)
(200.207 -1.14597 0)
(200.256 -0.843652 0)
(200.271 -0.522737 0)
(200.276 -0.17176 0)
(204.624 -6.26283 0)
(204.605 -6.2669 0)
(204.174 -6.04486 0)
(203.485 -5.93507 0)
(202.45 -5.60581 0)
(201.062 -5.67535 0)
(199.907 -5.8763 0)
(198.991 -5.60111 0)
(198.554 -5.47073 0)
(198.505 -5.56623 0)
(198.709 -5.49502 0)
(198.979 -5.43709 0)
(199.231 -5.44452 0)
(199.439 -5.37132 0)
(199.609 -5.2996 0)
(199.752 -5.22982 0)
(199.875 -5.16561 0)
(199.988 -5.10265 0)
(200.081 -4.99873 0)
(200.17 -4.89572 0)
(200.245 -4.80504 0)
(200.283 -4.69544 0)
(200.302 -4.57966 0)
(200.335 -4.45083 0)
(200.374 -4.31187 0)
(200.422 -4.17101 0)
(200.473 -4.0237 0)
(200.524 -3.86374 0)
(200.577 -3.69052 0)
(200.632 -3.50589 0)
(200.689 -3.30981 0)
(200.747 -3.10143 0)
(200.807 -2.88034 0)
(200.868 -2.64626 0)
(200.928 -2.39869 0)
(200.987 -2.13723 0)
(201.042 -1.86063 0)
(201.096 -1.56773 0)
(201.144 -1.25703 0)
(201.192 -0.926557 0)
(201.209 -0.574608 0)
(201.207 -0.189525 0)
(206.077 -6.28749 0)
(205.906 -5.938 0)
(205.52 -6.31715 0)
(204.733 -6.47749 0)
(203.556 -6.17772 0)
(202.358 -5.75304 0)
(201.012 -5.89303 0)
(200.04 -5.99359 0)
(199.458 -5.75382 0)
(199.335 -5.77666 0)
(199.555 -5.73122 0)
(199.871 -5.72741 0)
(200.17 -5.67599 0)
(200.41 -5.60755 0)
(200.6 -5.57364 0)
(200.75 -5.4873 0)
(200.88 -5.43178 0)
(200.994 -5.37321 0)
(201.087 -5.2622 0)
(201.178 -5.16196 0)
(201.256 -5.07546 0)
(201.294 -4.96395 0)
(201.306 -4.84457 0)
(201.335 -4.71367 0)
(201.372 -4.57693 0)
(201.418 -4.43679 0)
(201.468 -4.28605 0)
(201.517 -4.12104 0)
(201.567 -3.94285 0)
(201.62 -3.75198 0)
(201.676 -3.548 0)
(201.734 -3.33096 0)
(201.793 -3.09985 0)
(201.853 -2.8528 0)
(201.912 -2.58891 0)
(201.971 -2.30881 0)
(202.025 -2.01234 0)
(202.079 -1.69776 0)
(202.126 -1.36224 0)
(202.173 -1.0035 0)
(202.191 -0.621159 0)
(202.183 -0.205461 0)
(207.251 -6.65967 0)
(207.157 -6.26188 0)
(206.781 -6.61941 0)
(205.943 -6.76048 0)
(204.757 -6.35869 0)
(203.588 -5.91436 0)
(202.172 -6.20184 0)
(201.174 -6.36492 0)
(200.467 -5.98587 0)
(200.274 -5.98066 0)
(200.495 -6.00896 0)
(200.832 -5.97248 0)
(201.15 -5.89867 0)
(201.412 -5.86582 0)
(201.618 -5.80367 0)
(201.781 -5.72505 0)
(201.919 -5.68535 0)
(202.032 -5.59956 0)
(202.13 -5.4971 0)
(202.221 -5.41357 0)
(202.297 -5.32293 0)
(202.341 -5.2056 0)
(202.352 -5.08279 0)
(202.374 -4.95683 0)
(202.41 -4.82482 0)
(202.455 -4.68205 0)
(202.504 -4.52518 0)
(202.552 -4.35579 0)
(202.601 -4.17399 0)
(202.653 -3.97739 0)
(202.709 -3.76526 0)
(202.766 -3.53829 0)
(202.825 -3.29575 0)
(202.884 -3.03591 0)
(202.941 -2.75757 0)
(202.999 -2.46084 0)
(203.053 -2.14521 0)
(203.106 -1.8091 0)
(203.153 -1.45006 0)
(203.197 -1.06637 0)
(203.216 -0.658453 0)
(203.203 -0.218366 0)
(208.354 -6.78974 0)
(208.257 -6.44725 0)
(207.939 -6.72428 0)
(207.114 -6.89269 0)
(205.945 -6.69086 0)
(204.7 -6.29391 0)
(203.362 -6.3209 0)
(202.331 -6.44703 0)
(201.661 -6.29747 0)
(201.431 -6.19072 0)
(201.549 -6.19924 0)
(201.84 -6.15376 0)
(202.161 -6.128 0)
(202.443 -6.08389 0)
(202.666 -5.99458 0)
(202.843 -5.97129 0)
(202.99 -5.91664 0)
(203.104 -5.79785 0)
(203.211 -5.7228 0)
(203.304 -5.65422 0)
(203.378 -5.54674 0)
(203.431 -5.42233 0)
(203.446 -5.2941 0)
(203.458 -5.16885 0)
(203.494 -5.03405 0)
(203.539 -4.88277 0)
(203.587 -4.7196 0)
(203.635 -4.54805 0)
(203.682 -4.364 0)
(203.732 -4.16364 0)
(203.785 -3.94663 0)
(203.841 -3.7128 0)
(203.897 -3.46094 0)
(203.955 -3.18994 0)
(204.011 -2.89894 0)
(204.067 -2.58775 0)
(204.12 -2.25545 0)
(204.172 -1.90031 0)
(204.217 -1.52057 0)
(204.261 -1.1158 0)
(204.281 -0.687386 0)
(204.264 -0.228439 0)
(209.728 -6.97469 0)
(209.615 -7.23084 0)
(209.27 -6.89924 0)
(208.508 -6.57571 0)
(207.21 -6.81001 0)
(205.93 -6.91573 0)
(204.499 -6.67164 0)
(203.42 -6.39045 0)
(202.711 -6.53009 0)
(202.505 -6.50064 0)
(202.62 -6.39396 0)
(202.918 -6.35087 0)
(203.251 -6.38605 0)
(203.541 -6.26108 0)
(203.783 -6.18333 0)
(203.969 -6.21056 0)
(204.115 -6.09378 0)
(204.238 -5.96233 0)
(204.35 -5.9138 0)
(204.439 -5.8344 0)
(204.511 -5.70683 0)
(204.566 -5.58442 0)
(204.585 -5.46875 0)
(204.585 -5.34236 0)
(204.618 -5.20499 0)
(204.66 -5.05076 0)
(204.708 -4.88794 0)
(204.755 -4.71455 0)
(204.802 -4.52487 0)
(204.851 -4.31905 0)
(204.902 -4.09771 0)
(204.955 -3.85789 0)
(205.009 -3.59796 0)
(205.064 -3.31823 0)
(205.118 -3.01754 0)
(205.172 -2.69434 0)
(205.222 -2.34744 0)
(205.272 -1.97619 0)
(205.317 -1.58004 0)
(205.359 -1.15877 0)
(205.382 -0.713374 0)
(205.361 -0.237247 0)
(211.096 -7.24628 0)
(210.987 -6.96057 0)
(210.645 -7.13904 0)
(209.775 -7.25996 0)
(208.621 -7.11992 0)
(207.165 -6.7667 0)
(205.758 -6.60606 0)
(204.622 -6.8272 0)
(203.948 -6.68335 0)
(203.688 -6.58542 0)
(203.772 -6.51788 0)
(204.051 -6.4877 0)
(204.378 -6.52828 0)
(204.674 -6.38152 0)
(204.924 -6.34538 0)
(205.123 -6.35593 0)
(205.263 -6.20845 0)
(205.394 -6.12743 0)
(205.507 -6.10098 0)
(205.591 -5.98938 0)
(205.668 -5.85631 0)
(205.73 -5.74596 0)
(205.755 -5.6337 0)
(205.749 -5.49949 0)
(205.78 -5.35027 0)
(205.822 -5.19425 0)
(205.869 -5.03514 0)
(205.914 -4.86093 0)
(205.961 -4.66547 0)
(206.008 -4.45446 0)
(206.056 -4.22924 0)
(206.105 -3.98457 0)
(206.156 -3.71859 0)
(206.208 -3.43245 0)
(206.259 -3.12459 0)
(206.31 -2.79214 0)
(206.357 -2.43334 0)
(206.405 -2.0485 0)
(206.449 -1.63839 0)
(206.491 -1.20258 0)
(206.515 -0.74091 0)
(206.49 -0.246306 0)
(212.718 -7.32709 0)
(212.629 -7.46815 0)
(212.15 -7.32475 0)
(211.318 -7.10226 0)
(209.986 -7.37004 0)
(208.543 -7.26665 0)
(207.113 -6.90127 0)
(205.851 -6.82272 0)
(205.077 -6.90903 0)
(204.804 -6.85005 0)
(204.88 -6.71019 0)
(205.168 -6.72636 0)
(205.522 -6.73725 0)
(205.836 -6.59177 0)
(206.094 -6.59148 0)
(206.301 -6.54185 0)
(206.454 -6.3908 0)
(206.591 -6.33998 0)
(206.705 -6.27984 0)
(206.787 -6.13821 0)
(206.869 -6.01519 0)
(206.934 -5.91766 0)
(206.959 -5.79916 0)
(206.949 -5.65537 0)
(206.977 -5.49988 0)
(207.018 -5.34398 0)
(207.063 -5.18173 0)
(207.108 -5.00117 0)
(207.152 -4.80113 0)
(207.197 -4.58791 0)
(207.242 -4.35902 0)
(207.288 -4.10913 0)
(207.335 -3.83762 0)
(207.384 -3.54564 0)
(207.432 -3.23135 0)
(207.48 -2.89114 0)
(207.525 -2.52256 0)
(207.571 -2.12629 0)
(207.615 -1.70363 0)
(207.657 -1.25324 0)
(207.683 -0.773523 0)
(207.653 -0.256876 0)
(213.917 -7.69447 0)
(213.802 -7.95291 0)
(213.462 -7.5609 0)
(212.631 -7.21269 0)
(211.388 -7.3228 0)
(209.917 -7.52731 0)
(208.432 -7.3951 0)
(207.237 -7.01827 0)
(206.426 -7.0262 0)
(206.12 -7.08852 0)
(206.184 -6.93561 0)
(206.455 -6.92375 0)
(206.795 -6.87046 0)
(207.105 -6.76956 0)
(207.359 -6.77374 0)
(207.557 -6.674 0)
(207.717 -6.56377 0)
(207.852 -6.52567 0)
(207.957 -6.42695 0)
(208.044 -6.29537 0)
(208.126 -6.18871 0)
(208.185 -6.08574 0)
(208.21 -5.95676 0)
(208.2 -5.8094 0)
(208.22 -5.65773 0)
(208.255 -5.50241 0)
(208.297 -5.33305 0)
(208.339 -5.14431 0)
(208.38 -4.94062 0)
(208.421 -4.7245 0)
(208.462 -4.49161 0)
(208.503 -4.23807 0)
(208.547 -3.96282 0)
(208.593 -3.66562 0)
(208.638 -3.34509 0)
(208.683 -2.9984 0)
(208.727 -2.62252 0)
(208.772 -2.21663 0)
(208.815 -1.78084 0)
(208.857 -1.31341 0)
(208.885 -0.812455 0)
(208.851 -0.269709 0)
(215.425 -7.87294 0)
(215.259 -7.5152 0)
(214.858 -7.82906 0)
(214 -7.92904 0)
(212.683 -7.63726 0)
(211.337 -7.27943 0)
(209.809 -7.47711 0)
(208.559 -7.39413 0)
(207.734 -7.19463 0)
(207.394 -7.2035 0)
(207.482 -7.15875 0)
(207.773 -7.12842 0)
(208.108 -7.03959 0)
(208.408 -6.99123 0)
(208.657 -6.96478 0)
(208.852 -6.848 0)
(209.016 -6.75859 0)
(209.152 -6.69972 0)
(209.259 -6.60094 0)
(209.351 -6.48801 0)
(209.426 -6.37013 0)
(209.48 -6.24252 0)
(209.506 -6.10466 0)
(209.501 -5.96291 0)
(209.508 -5.80936 0)
(209.534 -5.64849 0)
(209.572 -5.47313 0)
(209.609 -5.28378 0)
(209.646 -5.08111 0)
(209.683 -4.86288 0)
(209.719 -4.62684 0)
(209.756 -4.37145 0)
(209.796 -4.09479 0)
(209.838 -3.79459 0)
(209.881 -3.46854 0)
(209.924 -3.11464 0)
(209.966 -2.73121 0)
(210.01 -2.31636 0)
(210.053 -1.86712 0)
(210.094 -1.38039 0)
(210.123 -0.855318 0)
(210.084 -0.284357 0)
(216.893 -8.20772 0)
(216.832 -7.7091 0)
(216.347 -8.09099 0)
(215.429 -8.23105 0)
(214.112 -7.79135 0)
(212.713 -7.38991 0)
(211.193 -7.66337 0)
(209.897 -7.60816 0)
(209.063 -7.38807 0)
(208.741 -7.32877 0)
(208.833 -7.32242 0)
(209.12 -7.29478 0)
(209.454 -7.20296 0)
(209.751 -7.18139 0)
(209.997 -7.11066 0)
(210.196 -7.00536 0)
(210.361 -6.94424 0)
(210.493 -6.86707 0)
(210.599 -6.76611 0)
(210.687 -6.6592 0)
(210.753 -6.53804 0)
(210.802 -6.40786 0)
(210.83 -6.2717 0)
(210.828 -6.12512 0)
(210.825 -5.96328 0)
(210.845 -5.79392 0)
(210.877 -5.61857 0)
(210.911 -5.43341 0)
(210.946 -5.23126 0)
(210.981 -5.00847 0)
(211.016 -4.76637 0)
(211.051 -4.50595 0)
(211.087 -4.22641 0)
(211.125 -3.92507 0)
(211.165 -3.59687 0)
(211.206 -3.23736 0)
(211.246 -2.84529 0)
(211.288 -2.41983 0)
(211.328 -1.95642 0)
(211.366 -1.44984 0)
(211.396 -0.89951 0)
(211.351 -0.30019 0)
(218.496 -8.54642 0)
(218.495 -8.3437 0)
(217.967 -8.21508 0)
(217.018 -8.20342 0)
(215.796 -7.71578 0)
(214.195 -7.71139 0)
(212.756 -7.91153 0)
(211.326 -7.65423 0)
(210.425 -7.49687 0)
(210.047 -7.50115 0)
(210.096 -7.44943 0)
(210.377 -7.4144 0)
(210.73 -7.3695 0)
(211.055 -7.32946 0)
(211.323 -7.25123 0)
(211.538 -7.17811 0)
(211.708 -7.09187 0)
(211.843 -7.00311 0)
(211.952 -6.92611 0)
(212.037 -6.82198 0)
(212.102 -6.69372 0)
(212.153 -6.56632 0)
(212.182 -6.43593 0)
(212.184 -6.28272 0)
(212.173 -6.11275 0)
(212.193 -5.93464 0)
(212.222 -5.75813 0)
(212.254 -5.57436 0)
(212.286 -5.37327 0)
(212.317 -5.14992 0)
(212.35 -4.90428 0)
(212.384 -4.6379 0)
(212.42 -4.35291 0)
(212.456 -4.048 0)
(212.493 -3.71665 0)
(212.531 -3.35207 0)
(212.568 -2.95108 0)
(212.607 -2.51338 0)
(212.642 -2.03531 0)
(212.677 -1.51106 0)
(212.705 -0.938767 0)
(212.655 -0.315181 0)
(220.221 -8.71063 0)
(220.201 -8.34439 0)
(219.679 -8.42024 0)
(218.74 -8.53246 0)
(217.427 -7.99036 0)
(215.918 -7.75508 0)
(214.301 -8.07029 0)
(212.855 -7.98041 0)
(211.835 -7.62691 0)
(211.326 -7.63014 0)
(211.32 -7.62581 0)
(211.593 -7.56733 0)
(211.975 -7.5186 0)
(212.34 -7.47951 0)
(212.64 -7.42215 0)
(212.875 -7.33828 0)
(213.058 -7.25021 0)
(213.203 -7.16852 0)
(213.318 -7.06325 0)
(213.407 -6.9421 0)
(213.478 -6.82796 0)
(213.53 -6.71078 0)
(213.56 -6.57433 0)
(213.566 -6.41776 0)
(213.554 -6.24818 0)
(213.571 -6.07313 0)
(213.598 -5.88944 0)
(213.632 -5.69511 0)
(213.664 -5.48908 0)
(213.693 -5.26705 0)
(213.724 -5.02348 0)
(213.757 -4.7562 0)
(213.792 -4.46672 0)
(213.828 -4.15481 0)
(213.863 -3.8162 0)
(213.897 -3.44493 0)
(213.929 -3.03604 0)
(213.964 -2.58715 0)
(213.995 -2.09547 0)
(214.025 -1.55696 0)
(214.051 -0.968654 0)