/*--------------------------------*- C++ -*----------------------------------*\
| =========                 |                                                 |
| \\      /  F ield         | OpenFOAM: The Open Source CFD Toolbox           |
|  \\    /   O peration     | Version:  2412                                  |
|   \\  /    A nd           | Website:  www.openfoam.com                      |
|    \\/     M anipulation  |                                                 |
\*---------------------------------------------------------------------------*/
FoamFile
{
    version     2.0;
    format      ascii;
    arch        "LSB;label=32;scalar=64";
    class       volScalarField;
    location    "0.013";
    object      Y;
}
// * * * * * * * * * * * * * * * * * * * * * * * * * * * * * * * * * * * * * //

dimensions      [0 0 0 0 0 0 0];

internalField   nonuniform List<scalar> 
8988
(
0
0
0
0
0
0
0
0
0
0
0
0
0
0
0
0
0
0
0
0
0
0
0
0
0
0
0
0
0
0
0
0
0
0
0
0
0
0
0
0
0
0
0
0
0
0
0
0
0
0
0
0
0
0
0
0
0
0
0
0
0
0
0
0
0
0
0
0
0
0
0
0
0
0
0
0
0
0
0
0
0
0
0
0
0
0
0
0
0
0
0
0
0
0
0
0
0
0
0
0
0
0
0
0
0
0
0
0
0
0
0
0
0
0
0
0
0
0
0
0
0
0
0
0
0
0
0
0
0
0
0
0
0
0
0
0
0
0
0
0
0
0
0
0
0
0
0
0
0
0
0
0
0
0
0
0
0
0
0
0
0
0
0
0
0
0
0
0
0
0
0
0
0
0
0
0
0
0
0
0
0
0
0
0
0
0
0
0
0
0
0
0
0
0
0
0
0
0
0
0
0
0
0
0
0
0
0
0
0
0
0
0
0
0
0
0
0
0
0
0
0
0
0
0
0
0
0
0
0
0
0
0
0
0
0
0
0
0
0
0
0
0
0
0
0
0
0
0
0
0
0
0
0
0
0
0
0
0
0
0
0
0
0
0
0
0
0
0
0
0
0
0
0
0
0
0
0
0
0
0
0
0
0
0
0
0
0
0
0
0
0
0
0
0
0
0
0
0
0
0
0
0
0
0
0
0
0
0
0
0
0
0
0
0
0
0
0
0
0
0
0
0
0
0
0
0
0
0
0
0
0
0
0
0
0
0
0
0
0
0
0
0
0
0
0
0
0
0
0
0
0
0
0
0
0
0
0
0
0
0
0
0
0
0
0
0
0
0
0
0
0
0
0
0
0
0
0
0
0
0
0
0
0
0
0
0
0
0
0
0
0
0
0
0
0
0
0
0
0
0
0
0
0
0
0
0
0
0
0
0
0
0
0
0
0
0
0
0
0
0
0
0
0
0
0
0
0
0
0
0
0
0
0
0
0
0
0
0
0
0
0
0
0
0
0
0
0
0
0
0
0
0
0
0
0
0
0
0
0
0
0
0
0
0
0
0
0
0
0
0
0
0
0
0
0
0
0
0
0
0
0
0
0
0
0
0
0
0
0
0
0
0
0
0
0
0
0
0
0
0
0
0
0
0
0
0
0
0
0
0
0
0
0
0
0
0
0
0
0
0
0
0
0
0
0
0
0
0
0
0
0
0
0
0
0
0
0
0
0
0
0
0
0
0
0
0
0
0
0
0
0
0
0
0
0
0
0
0
0
0
0
0
0
0
0
0
0
0
0
0
0
0
0
0
0
0
0
0
0
0
0
0
0
0
0
0
0
0
0
0
0
0
0
0
0
0
0
0
0
0
0
0
0
0
0
0
0
0
0
0
0
0
0
0
0
0
0
0
0
0
0
0
0
0
0
0
0
0
0
0
0
0
0
0
0
0
0
0
0
0
0
0
0
0
0
0
0
0
0
0
0
0
0
0
0
0
0
0
0
0
0
0
0
0
0
0
0
0
0
0
0
0
0
0
0
0
0
0
0
0
0
0
0
0
0
0
0
0
0
0
0
0
0
0
0
0
0
0
0
0
0
0
0
0
0
0
0
0
0
0
0
0
0
0
0
0
0
0
0
0
0
0
0
0
0
0
0
0
0
0
0
0
0
0
0
0
0
0
0
0
0
0
0
0
0
0
0
0
0
0
0
0
0
0
0
0
0
0
0
0
0
0
0
0
0
0
0
0
0
0
0
0
0
0
0
0
0
0
0
0
0
0
0
0
0
0
0
0
0
0
0
0
0
0
0
0
0
0
0
0
0
0
0
0
0
0
0
0
0
0
0
0
0
0
0
0
0
0
0
0
0
0
0
0
0
0
0
0
0
0
0
0
0
0
0
0
0
0
0
0
0
0
0
0
0
0
0
0
0
0
0
0
0
0
0
0
0
0
0
0
0
0
0
0
0
0
0
0
0
0
0
0
0
0
0
0
0
0
0
0
0
0
0
0
0
0
0
0
0
0
0
0
0
0
0
0
0
0
0
0
0
0
0
0
0
0
0
0
0
0
0
0
0
0
0
0
0
0
0
0
0
0
0
0
0
0
0
0
0
0
0
0
0
0
0
0
0
0
0
0
0
0
0
0
0
0
0
0
0
0
0
0
0
0
0
0
0
0
0
0
0
0
0
0
0
0
0
0
0
0
0
0
0
0
0
0
0
0
0
0
0
0
0
0
0
0
0
0
0
0
0
0
0
0
0
0
0
0
0
0
0
0
0
0
0
0
0
0
0
0
0
0
0
0
0
0
0
0
0
0
0
0
0
0
0
0
0
0
0
0
0
0
0
0
0
0
0
0
0
0
0
0
0
0
0
0
0
0
0
0
0
0
0
0
0
0
0
0
0
0
0
0
0
0
0
0
0
0
0
0
0
0
0
0
0
0
0
0
0
0
0
0
0
0
0
0
0
0
0
0
0
0
0
0
0
0
0
0
0
0
0
0
0
0
0
0
0
0
0
0
0
0
0
0
0
0
0
0
0
0
0
0
0
0
0
0
0
0
0
0
0
0
0
0
0
0
0
0
0
0
0
0
0
0
0
0
0
0
0
0
0
0
0
0
0
0
0
0
0
0
0
0
0
0
0
0
0
0
0
0
0
0
0
0
0
0
0
0
0
0
0
0
0
0
0
0
0
0
0
0
0
0
0
0
0
0
0
0
0
0
0
0
0
0
0
0
0
0
0
0
0
0
0
0
0
0
0
0
0
0
0
0
0
0
0
0
0
0
0
0
0
0
0
0
0
0
0
0
0
0
0
0
0
0
0
0
0
0
0
0
0
0
0
0
0
0
0
0
0
0
0
0
0
0
0
0
0
0
0
0
0
0
0
0
0
0
0
0
0
0
0
0
0
0
0
0
0
0
0
0
0
0
0
0
0
0
0
0
0
0
0
0
0
0
0
0
0
0
0
0
0
0
0
0
0
0
0
0
0
0
0
0
0
0
0
0
0
0
0
0
0
0
0
0
0
0
0
0
0
0
0
0
0
0
0
0
0
0
0
0
0
0
0
0
0
0
0
0
0
0
0
0
0
0
0
0
0
0
0
0
0
0
0
0
0
0
0
0
0
0
0
0
0
0
0
0
0
0
0
0
0
0
0
0
0
0
0
0
0
0
0
0
0
0
0
0
0
0
0
0
0
0
0
0
0
0
0
0
0
0
0
0
0
0
0
0
0
0
0
0
0
0
0
0
0
0
0
0
0
0
0
0
0
0
0
0
0
0
0
0
0
0
0
0
0
0
0
0
0
0
0
0
0
0
0
0
0
0
0
0
0
0
0
0
0
0
0
0
0
0
0
0
0
0
0
0
0
0
0
0
0
0
0
0
0
0
0
0
0
0
0
0
0
0
0
0
0
0
0
0
0
0
0
0
0
0
0
0
0
0
0
0
0
0
0
0
0
0
0
0
0
0
0
0
0
0
0
0
0
0
0
0
0
0
0
0
0
0
0
0
0
0
0
0
0
0
0
0
0
0
0
0
0
0
0
0
0
0
0
0
0
0
0
0
0
0
0
0
0
0
0
0
0
0
0
0
0
0
0
0
0
0
0
0
0
0
0
0
0
0
0
0
0
0
0
0
0
0
0
0
0
0
0
0
0
0
0
0
0
0
0
0
0
0
0
0
0
0
0
0
0
0
0
0
0
0
0
0
0
0
0
0
0
0
0
0
0
0
0
0
0
0
0
0
0
0
0
0
0
0
0
0
0
0
0
0
0
0
0
0
0
0
0
0
0
0
0
0
0
0
0
0
0
0
0
0
0
0
0
0
0
0
0
0
0
0
0
0
0
0
0
0
0
0
0
0
0
0
0
0
0
0
0
0
0
0
0
0
0
0
0
0
0
0
0
0
0
0
0
0
0
0
0
0
0
0
0
0
0
0
0
0
0
0
0
0
0
0
0
0
0
0
0
0
0
0
0
0
0
0
0
0
0
0
0
0
0
0
0
0
0
0
0
0
0
0
0
0
0
0
0
0
0
0
0
0
0
0
0
0
0
0
0
0
0
0
0
0
0
0
0
0
0
0
0
0
0
0
0
0
0
0
0
0
0
0
0
0
0
0
0
0
0
0
0
0
0
0
0
0
0
0
0
0
0
0
0
0
0
0
0
0
0
0
0
0
0
0
0
0
0
0
0
0
0
0
0
0
0
0
0
0
0
0
0
0
0
0
0
0
0
0
0
0
0
0
0
0
0
0
0
0
0
0
0
0
0
0
0
0
0
0
0
0
0
0
0
0
0
0
0
0
0
0
0
0
0
0
0
0
0
0
0
0
0
0
0
0
0
0
0
0
0
0
0
0
0
0
0
0
0
0
0
0
0
0
0
0
0
0
0
0
0
0
0
0
0
0
0
0
0
0
0
0
0
0
0
0
0
0
0
0
0
0
0
0
0
0
0
0
0
0
0
0
0
0
0
0
0
0
0
0
0
0
0
0
0
0
0
0
0
0
0
0
0
0
0
0
0
0
0
0
0
0
0
0
0
0
0
0
0
0
0
0
0
0
0
0
0
0
0
0
0
0
0
0
0
0
0
0
0
0
0
0
0
0
0
0
0
0
0
0
0
0
0
0
0
0
0
0
0
0
0
0
0
0
0
0
0
0
0
0
0
0
0
0
0
0
0
0
0
0
0
0
0
0
0
0
0
0
0
0
0
0
0
0
0
0
0
0
0
0
0
0
0
0
0
0
0
0
0
0
0
0
0
0
0
0
0
0
0
0
0
0
0
0
0
0
0
0
0
0
0
0
0
0
0
0
0
0
0
0
0
0
0
0
0
0
0
0
0
0
0
0
0
0
0
0
0
0
0
0
0
0
0
0
0
0
0
0
0
0
0
0
0
0
0
0
0
0
0
0
0
0
0
0
0
0
0
0
0
0
0
0
0
0
0
0
0
0
0
0
0
0
0
0
0
0
0
0
0
0
0
0
0
0
0
0
0
0
0
0
0
0
0
0
0
0
0
0
0
0
0
0
0
0
0
0
0
0
0
0
0
0
0
0
0
0
0
0
0
0
0
0
0
0
0
0
0
0
0
0
0
0
0
0
0
0
0
0
0
0
0
0
0
0
0
0
0
0
0
0
0
0
0
0
0
0
0
0
0
0
0
0
0
0
0
0
0
0
0
0
0
0
0
0
0
0
0
0
0
0
0
0
0
0
0
0
0
0
0
0
0
0
0
0
0
0
0
0
0
0
0
0
0
0
0
0
0
0
0
0
0
0
0
0
0
0
0
0
0
0
0
0
0
0
0
0
0
0
0
0
0
0
0
0
0
0
0
0
0
0
0
0
0
0
0
0
0
0
0
0
0
0
0
0
0
0
0
0
0
0
0
0
0
0
0
0
0
0
0
0
0
0
0
0
0
0
0
0
0
0
0
0
0
0
0
0
0
0
0
0
0
0
0
0
0
0
0
0
0
0
0
0
0
0
0
0
0
0
0
0
0
0
0
0
0
0
0
0
0
0
0
0
0
0
0
0
0
0
0
0
0
0
0
0
0
0
0
0
0
0
0
0
0
0
0
0
0
0
0
0
0
0
0
0
0
0
0
0
0
0
0
0
0
0
0
0
0
0
0
0
0
0
0
0
0
0
0
0
0
0
0
0
0
0
0
0
0
0
0
0
0
0
0
0
0
0
0
0
0
0
0
0
0
0
0
0
0
0
0
0
0
0
0
0
0
0
0
0
0
0
0
0
0
0
0
0
0
0
0
0
0
0
0
0
0
0
0
0
0
0
0
0
0
0
0
0
0
0
0
0
0
0
0
0
0
0
0
0
0
0
0
0
0
0
0
0
0
0
0
0
0
0
0
0
0
0
0
0
0
0
0
0
0
0
0
0
0
0
0
0
0
0
0
0
0
0
0
0
0
0
0
0
0
0
0
0
0
0
0
0
0
0
0
0
0
0
0
0
0
0
0
0
0
0
0
0
0
0
0
0
0
0
0
0
0
0
0
0
0
0
0
0
0
0
0
0
0
0
0
0
0
0
0
0
0
0
0
0
0
0
0
0
0
0
0
0
0
0
0
0
0
0
0
0
0
0
0
0
0
0
0
0
0
0
0
0
0
0
0
0
0
0
0
0
0
0
0
0
0
0
0
0
0
0
0
0
0
0
0
0
0
0
0
0
0
0
0
0
0
0
0
0
0
0
0
0
0
0
0
0
0
0
0
0
0
0
0
0
0
0
0
0
0
0
0
0
0
0
0
0
0
0
0
0
0
0
0
0
0
0
0
0
0
0
0
0
0
0
0
0
0
0
0
0
0
0
0
0
0
0
0
0
0
0
0
0
0
0
0
0
0
0
0
0
0
0
0
0
0
0
0
0
0
0
0
0
0
0
0
0
0
0
0
0
0
0
0
0
0
0
0
0
0
0
0
0
0
0
0
0
0
0
0
0
0
0
0
0
0
0
0
0
0
0
0
0
0
0
0
0
0
0
0
0
0
0
0
0
0
0
0
0
0
0
0
0
0
0
0
0
0
0
0
0
0
0
0
0
0
0
0
0
0
0
0
0
0
0
0
0
0
0
0
0
0
0
0
0
0
0
0
0
0
0
0
0
0
0
0
0
0
0
0
0
0
0
0
0
0
0
0
0
0
0
0
0
0
0
0
0
0
0
0
0
0
0
0
0
0
0
0
0
0
0
0
0
0
0
0
0
0
0
0
0
0
0
0
0
0
0
0
0
0
0
0
0
0
0
0
0
0
0
0
0
0
0
0
0
0
0
0
0
0
0
0
0
0
0
0
0
0
0
0
0
0
0
0
0
0
0
0
0
0
0
0
0
0
0
0
0
0
0
0
0
0
0
0
0
0
0
0
0
0
0
0
0
0
0
0
0
0
0
0
0
0
0
0
0
0
0
0
0
0
0
0
0
0
0
0
0
0
0
0
0
0
0
0
0
0
0
0
0
0
0
0
0
0
0
0
0
0
0
0
0
0
0
0
0
0
0
0
0
0
0
0
0
0
0
0
0
0
0
0
0
0
0
0
0
0
0
0
0
0
0
0
0
0
0
0
0
0
0
0
0
0
0
0
0
0
0
0
0
0
0
0
0
0
0
0
0
0
0
0
0
0
0
0
0
0
0
0
0
0
0
0
0
0
0
0
0
0
0
0
0
0
0
0
0
0
0
0
0
0
0
0
0
0
0
0
0
0
0
0
0
0
0
0
0
0
0
0
0
0
0
0
0
0
0
0
0
0
0
0
0
0
0
0
0
0
0
0
0
0
0
0
0
0
0
0
0
0
0
0
0
0
0
0
0
0
0
0
0
0
0
0
0
0
0
0
0
0
0
0
0
0
0
0
0
0
0
0
0
0
0
0
0
0
0
0
0
0
0
0
0
0
0
0
0
0
0
0
0
0
0
0
0
0
0
0
0
0
0
0
0
0
0
0
0
0
0
0
0
0
0
0
0
0
0
0
0
0
0
0
0
0
0
0
0
0
0
0
0
0
0
0
0
0
0
0
0
0
0
0
0
0
0
0
0
0
0
0
0
0
0
0
0
0
0
0
0
0
0
0
0
0
0
0
0
0
0
0
0
0
0
0
0
0
0
0
0
0
0
0
0
0
0
0
0
0
0
0
0
0
0
0
0
0
0
0
0
0
0
0
0
0
0
0
0
0
0
0
0
0
0
0
0
0
0
0
0
0
0
0
0
0
0
0
0
0
0
0
0
0
0
0
0
0
0
0
0
0
0
0
0
0
0
0
0
0
0
0
0
0
0
0
0
0
0
0
0
0
0
0
0
0
0
0
0
0
0
0
0
0
0
0
0
0
0
0
0
0
0
0
0
0
0
0
0
0
0
0
0
0
0
0
0
0
0
0
0
0
0
0
0
0
0
0
0
0
0
0
0
0
0
0
0
0
0
0
0
0
0
0
0
0
0
0
0
0
0
0
0
0
0
0
0
0
0
0
0
0
0
0
0
0
0
0
0
0
0
0
0
0
0
0
0
0
0
0
0
0
0
0
0
0
0
0
0
0
0
0
0
0
0
0
0
0
0
0
0
0
0
0
0
0
0
0
0
0
0
0
0
0
0
0
0
0
0
0
0
0
0
0
0
0
0
0
0
0
0
0
0
0
0
0
0
0
0
0
0
0
0
0
0
0
0
0
0
0
0
0
0
0
0
0
0
0
0
0
0
0
0
0
0
0
0
0
0
0
0
0
0
0
0
0
0
0
0
0
0
0
0
0
0
0
0
0
0
0
0
0
0
0
0
0
0
0
0
0
0
0
0
0
0
0
0
0
0
0
0
0
0
0
0
0
0
0
0
0
0
0
0
0
0
0
0
0
0
0
0
0
0
0
0
0
0
0
0
0
0
0
0
0
0
0
0
0
0
0
0
0
0
0
0
0
0
0
0
0
0
0
0
0
0
0
0
0
0
0
0
0
0
0
0
0
0
0
0
0
0
0
0
0
0
0
0
0
0
0
0
0
0
0
0
0
0
0
0
0
0
0
0
0
0
0
0
0
0
0
0
0
0
0
0
0
0
0
0
0
0
0
0
0
0
0
0
0
0
0
0
0
0
0
0
0
0
0
0
0
0
0
0
0
0
0
0
0
0
0
0
0
0
0
0
0
0
0
0
0
0
0
0
0
0
0
0
0
0
0
0
0
0
0
0
0
0
0
0
0
0
0
0
0
0
0
0
0
0
0
0
0
0
0
0
0
0
0
0
0
0
0
0
0
0
0
0
0
0
0
0
0
0
0
0
0
0
0
0
0
0
0
0
0
0
0
0
0
0
0
0
0
0
0
0
0
0
0
0
0
0
0
0
0
0
0
0
0
0
0
0
0
0
0
0
0
0
0
0
0
0
0
0
0
0
0
0
0
0
0
0
0
0
0
0
0
0
0
0
0
0
0
0
0
0
0
0
0
0
0
0
0
0
0
0
0
0
0
0
0
0
0
0
0
0
0
0
0
0
0
0
0
0
0
0
0
0
0
0
0
0
0
0
0
0
0
0
0
0
0
0
0
0
0
0
0
0
0
0
0
0
0
0
0
0
0
0
0
0
0
0
0
0
0
0
0
0
0
0
0
0
0
0
0
0
0
0
0
0
0
0
0
0
0
0
0
0
0
0
0
0
0
0
0
0
0
0
0
0
0
0
0
0
0
0
0
0
0
0
0
0
0
0
0
0
0
0
0
0
0
0
0
0
0
0
0
0
0
0
0
0
0
0
0
0
0
0
0
0
0
0
0
0
0
0
0
0
0
0
0
0
0
0
0
0
0
0
0
0
0
0
0
0
0
0
0
0
0
0
0
0
0
0
0
0
0
0
0
1.11314e-12
1.39171e-12
1.62549e-12
1.80715e-12
1.93994e-12
2.02983e-12
2.08519e-12
2.11766e-12
2.13616e-12
2.14539e-12
2.14787e-12
2.14443e-12
2.13461e-12
2.11851e-12
2.09857e-12
2.07491e-12
2.06651e-12
2.07398e-12
2.04144e-12
0
0
0
0
0
0
0
0
0
0
0
0
0
0
0
0
0
0
0
0
0
1.30564e-12
1.97739e-12
2.67945e-12
3.33352e-12
3.87895e-12
4.29717e-12
4.61011e-12
4.83086e-12
4.96536e-12
5.03821e-12
5.07686e-12
5.09668e-12
5.10059e-12
5.08451e-12
5.0484e-12
4.99709e-12
4.93909e-12
4.87807e-12
4.85434e-12
4.86741e-12
4.7985e-12
0
0
0
0
0
0
0
0
0
0
0
0
0
0
0
0
0
0
0
0
1.80446e-12
3.12268e-12
4.6747e-12
6.27495e-12
7.75362e-12
8.97839e-12
9.92874e-12
1.06582e-11
1.11767e-11
1.14798e-11
1.16229e-11
1.16879e-11
1.17202e-11
1.17197e-11
1.16638e-11
1.15583e-11
1.14222e-11
1.12745e-11
1.1125e-11
1.10602e-11
1.10776e-11
1.09399e-11
0
0
0
0
0
0
0
0
0
0
0
0
0
0
0
0
0
0
0
2.0617e-12
4.2334e-12
7.19164e-12
1.06251e-11
1.41393e-11
1.73993e-11
2.01371e-11
2.22841e-11
2.39279e-11
2.5077e-11
2.57441e-11
2.6072e-11
2.62144e-11
2.625e-11
2.61753e-11
2.59816e-11
2.56986e-11
2.53474e-11
2.49763e-11
2.46408e-11
2.44941e-11
2.45172e-11
2.42571e-11
0
0
0
0
0
0
0
0
0
0
0
0
0
0
0
0
0
0
1.86998e-12
4.87299e-12
9.67264e-12
1.60611e-11
2.33991e-11
3.08738e-11
3.78022e-11
4.38183e-11
4.87143e-11
5.23543e-11
5.47662e-11
5.61627e-11
5.68474e-11
5.70958e-11
5.70458e-11
5.67513e-11
5.62637e-11
5.561e-11
5.47775e-11
5.39132e-11
5.32116e-11
5.28958e-11
5.29055e-11
5.24121e-11
0
0
0
0
0
0
0
0
0
0
0
0
0
0
0
0
0
0
4.43795e-12
1.11229e-11
2.14606e-11
3.49121e-11
5.03582e-11
6.61804e-11
8.0793e-11
9.34528e-11
1.03704e-10
1.11167e-10
1.16057e-10
1.18892e-10
1.20229e-10
1.206e-10
1.20366e-10
1.19729e-10
1.18741e-10
1.17349e-10
1.15539e-10
1.13682e-10
1.1224e-10
1.11515e-10
1.11335e-10
1.10384e-10
0
0
0
0
0
0
0
0
0
0
0
0
0
0
0
0
0
2.08215e-12
9.81842e-12
2.4421e-11
4.63636e-11
7.43956e-11
1.06346e-10
1.38916e-10
1.68832e-10
1.94425e-10
2.14753e-10
2.29393e-10
2.39057e-10
2.44668e-10
2.47237e-10
2.47943e-10
2.47581e-10
2.46516e-10
2.44664e-10
2.41851e-10
2.3818e-10
2.3444e-10
2.31398e-10
2.29532e-10
2.28548e-10
2.26766e-10
0
0
0
0
0
0
0
0
0
0
0
0
0
0
0
0
0
4.92581e-12
2.1364e-11
5.19832e-11
9.72152e-11
1.5455e-10
2.19253e-10
2.84368e-10
3.43732e-10
3.9409e-10
4.3362e-10
4.61954e-10
4.80742e-10
4.91728e-10
4.96901e-10
4.9858e-10
4.98409e-10
4.96826e-10
4.93378e-10
4.87786e-10
4.80516e-10
4.73102e-10
4.66816e-10
4.62332e-10
4.59145e-10
4.55452e-10
0
0
0
0
0
0
0
0
0
0
0
0
0
0
0
0
0
1.16632e-11
4.60475e-11
1.08287e-10
1.99005e-10
3.13388e-10
4.41258e-10
5.68521e-10
6.83861e-10
7.81246e-10
8.57076e-10
9.11183e-10
9.47297e-10
9.68727e-10
9.79282e-10
9.83254e-10
9.83575e-10
9.80597e-10
9.73222e-10
9.61566e-10
9.47494e-10
9.33233e-10
9.2013e-10
9.09439e-10
9.00989e-10
8.93965e-10
0
0
0
0
0
0
0
0
0
0
0
0
0
0
0
0
1.52806e-12
2.55317e-11
9.53351e-11
2.19286e-10
3.97951e-10
6.21669e-10
8.69455e-10
1.11408e-09
1.33463e-09
1.51953e-09
1.66186e-09
1.76247e-09
1.82947e-09
1.86935e-09
1.88951e-09
1.89764e-09
1.89828e-09
1.89141e-09
1.8753e-09
1.85131e-09
1.82343e-09
1.79593e-09
1.77086e-09
1.74934e-09
1.73282e-09
1.72179e-09
0
0
0
0
0
0
0
0
0
0
0
0
0
0
0
0
4.6861e-12
5.37464e-11
1.91958e-10
4.34431e-10
7.81577e-10
1.21304e-09
1.68657e-09
2.15106e-09
2.5673e-09
2.91264e-09
3.17525e-09
3.35887e-09
3.47916e-09
3.54979e-09
3.58583e-09
3.60085e-09
3.60113e-09
3.58585e-09
3.55316e-09
3.5064e-09
3.45312e-09
3.40021e-09
3.35201e-09
3.31074e-09
3.27942e-09
3.26024e-09
0
0
0
0
0
0
0
0
0
0
0
0
0
0
0
0
1.18846e-11
1.10296e-10
3.78797e-10
8.45365e-10
1.51009e-09
2.33011e-09
3.22295e-09
4.09469e-09
4.87099e-09
5.50805e-09
5.98792e-09
6.3199e-09
6.53131e-09
6.65174e-09
6.71244e-09
6.73746e-09
6.73533e-09
6.70364e-09
6.64066e-09
6.55338e-09
6.4547e-09
6.35518e-09
6.26272e-09
6.18393e-09
6.12494e-09
6.09215e-09
0
0
0
0
0
0
0
0
0
0
0
0
0
0
0
0
2.82185e-11
2.23868e-10
7.38485e-10
1.62354e-09
2.87707e-09
4.41154e-09
6.07154e-09
7.6863e-09
9.1151e-09
1.02758e-08
1.11428e-08
1.17352e-08
1.21011e-08
1.23022e-08
1.24009e-08
1.24392e-08
1.24293e-08
1.23658e-08
1.22478e-08
1.20884e-08
1.19088e-08
1.17251e-08
1.15517e-08
1.14036e-08
1.12944e-08
1.12373e-08
0
0
0
0
0
0
0
0
0
0
0
0
0
0
0
1.43698e-12
6.43399e-11
4.50425e-10
1.42734e-09
3.0867e-09
5.41761e-09
8.24758e-09
1.12916e-08
1.42405e-08
1.68319e-08
1.89173e-08
2.04607e-08
2.14991e-08
2.21233e-08
2.24564e-08
2.26156e-08
2.26727e-08
2.26445e-08
2.25218e-08
2.23062e-08
2.20213e-08
2.16988e-08
2.13641e-08
2.10442e-08
2.07699e-08
2.05698e-08
2.04681e-08
0
0
0
0
0
0
0
0
0
0
0
0
0
0
0
4.45254e-12
1.44323e-10
8.99734e-10
2.73369e-09
5.80459e-09
1.00734e-08
1.52127e-08
2.07139e-08
2.60166e-08
3.0642e-08
3.43348e-08
3.70426e-08
3.88387e-08
3.98997e-08
4.04575e-08
4.07202e-08
4.08081e-08
4.07445e-08
4.05156e-08
4.01304e-08
3.96274e-08
3.90514e-08
3.84457e-08
3.78628e-08
3.73627e-08
3.69997e-08
3.68168e-08
0
0
0
0
0
0
0
0
0
0
0
0
0
0
0
1.06762e-11
3.16534e-10
1.78272e-09
5.18739e-09
1.0793e-08
1.84887e-08
2.76804e-08
3.74684e-08
4.68346e-08
5.49481e-08
6.13906e-08
6.60728e-08
6.91466e-08
7.0956e-08
7.19117e-08
7.23595e-08
7.25013e-08
7.23792e-08
7.19745e-08
7.13076e-08
7.04312e-08
6.94105e-08
6.83264e-08
6.7283e-08
6.639e-08
6.57384e-08
6.54071e-08
0
0
0
0
0
0
0
0
0
0
0
0
0
0
0
2.31051e-11
6.79264e-10
3.50045e-09
9.74564e-09
1.98254e-08
3.34737e-08
4.96458e-08
6.67317e-08
8.29361e-08
9.69203e-08
1.08004e-07
1.16008e-07
1.21251e-07
1.24377e-07
1.26067e-07
1.26866e-07
1.27124e-07
1.26932e-07
1.26263e-07
1.25146e-07
1.23638e-07
1.21846e-07
1.19932e-07
1.18098e-07
1.16535e-07
1.15378e-07
1.14777e-07
0
0
0
0
0
0
0
0
0
0
0
0
0
0
3.75638e-12
4.95222e-11
1.419e-09
6.76849e-09
1.80458e-08
3.58729e-08
5.97037e-08
8.76913e-08
1.16973e-07
1.44559e-07
1.68341e-07
1.87157e-07
2.00725e-07
2.09673e-07
2.15096e-07
2.18076e-07
2.19512e-07
2.20017e-07
2.19781e-07
2.18746e-07
2.16921e-07
2.1437e-07
2.11282e-07
2.07971e-07
2.0481e-07
2.02117e-07
2.00092e-07
1.99016e-07
0
0
0
0
0
0
0
0
0
0
0
0
0
0
9.85952e-12
1.03382e-10
2.8798e-09
1.28549e-08
3.28892e-08
6.39288e-08
1.04943e-07
1.52612e-07
2.02043e-07
2.48479e-07
2.88454e-07
3.20009e-07
3.42879e-07
3.58141e-07
3.67442e-07
3.72548e-07
3.75062e-07
3.76069e-07
3.75903e-07
3.74385e-07
3.7146e-07
3.67231e-07
3.62041e-07
3.56443e-07
3.51094e-07
3.46514e-07
3.4302e-07
3.4114e-07
0
0
0
0
0
0
0
0
0
0
0
0
0
0
2.26154e-11
2.10439e-10
5.69606e-09
2.40074e-08
5.90932e-08
1.12425e-07
1.82082e-07
2.62214e-07
3.44766e-07
4.22157e-07
4.88597e-07
5.4103e-07
5.79324e-07
6.05054e-07
6.20666e-07
6.29192e-07
6.33514e-07
6.35476e-07
6.35559e-07
6.33372e-07
6.28706e-07
6.21797e-07
6.13267e-07
6.04032e-07
5.95157e-07
5.87503e-07
5.81635e-07
5.78481e-07
0
0
0
0
0
0
0
0
0
0
0
0
0
2.24268e-12
4.94964e-11
4.16079e-10
1.09592e-08
4.40912e-08
1.04818e-07
1.95371e-07
3.12283e-07
4.4567e-07
5.82406e-07
7.10209e-07
8.19713e-07
9.06222e-07
9.69519e-07
1.01194e-06
1.03758e-06
1.05166e-06
1.05901e-06
1.06255e-06
1.063e-06
1.05976e-06
1.05231e-06
1.04114e-06
1.02738e-06
1.01248e-06
9.98073e-07
9.85588e-07
9.76077e-07
9.71033e-07
0
0
0
0
0
0
0
0
0
0
0
0
0
7.1049e-12
1.07195e-10
1.47166e-09
2.11221e-08
7.91241e-08
1.82826e-07
3.35063e-07
5.29571e-07
7.49906e-07
9.7471e-07
1.18419e-06
1.36342e-06
1.50476e-06
1.60757e-06
1.67605e-06
1.71754e-06
1.74066e-06
1.75288e-06
1.75877e-06
1.75956e-06
1.75445e-06
1.74245e-06
1.72448e-06
1.70254e-06
1.6789e-06
1.65601e-06
1.63626e-06
1.62145e-06
1.61376e-06
0
0
0
0
0
0
0
0
0
0
0
0
0
1.74845e-11
2.19561e-10
4.01523e-09
3.9717e-08
1.39071e-07
3.13539e-07
5.66897e-07
8.87855e-07
1.24902e-06
1.61607e-06
1.95705e-06
2.24776e-06
2.47574e-06
2.6403e-06
2.74937e-06
2.81567e-06
2.85291e-06
2.87253e-06
2.88179e-06
2.88282e-06
2.87432e-06
2.85476e-06
2.82596e-06
2.79135e-06
2.75435e-06
2.71877e-06
2.68847e-06
2.66601e-06
2.65452e-06
0
0
0
0
0
0
0
0
0
0
0
0
0
3.86252e-11
4.32231e-10
9.23358e-09
7.27328e-08
2.40226e-07
5.29924e-07
9.47022e-07
1.47125e-06
2.05807e-06
2.65275e-06
3.20281e-06
3.66906e-06
4.03255e-06
4.29346e-06
4.46566e-06
4.57004e-06
4.62833e-06
4.65868e-06
4.6728e-06
4.67378e-06
4.65918e-06
4.6273e-06
4.58154e-06
4.52741e-06
4.47015e-06
4.41586e-06
4.37007e-06
4.33601e-06
4.31854e-06
0
0
0
0
0
0
0
0
0
0
0
0
3.21785e-12
8.1771e-11
8.25299e-10
1.93722e-08
1.30427e-07
4.09131e-07
8.84224e-07
1.56196e-06
2.40755e-06
3.35067e-06
4.30338e-06
5.18031e-06
5.92045e-06
6.49565e-06
6.90698e-06
7.17693e-06
7.33916e-06
7.42872e-06
7.47486e-06
7.49585e-06
7.49607e-06
7.47135e-06
7.42023e-06
7.34813e-06
7.26371e-06
7.17568e-06
7.09344e-06
7.02419e-06
6.9719e-06
6.94485e-06
0
0
0
0
0
0
0
0
0
0
0
0
9.20354e-12
1.65393e-10
1.54884e-09
3.85976e-08
2.30231e-07
6.88665e-07
1.45808e-06
2.54445e-06
3.89117e-06
5.38736e-06
6.89209e-06
8.27193e-06
9.43473e-06
1.03377e-05
1.09818e-05
1.14022e-05
1.16527e-05
1.17898e-05
1.18597e-05
1.18903e-05
1.18887e-05
1.18487e-05
1.17687e-05
1.16559e-05
1.15245e-05
1.13894e-05
1.12642e-05
1.11582e-05
1.10775e-05
1.10361e-05
0
0
0
0
0
0
0
0
0
0
0
0
2.15204e-11
3.24307e-10
2.8768e-09
7.42202e-08
4.01135e-07
1.14713e-06
2.37801e-06
4.0975e-06
6.2147e-06
8.55393e-06
1.08956e-05
1.30381e-05
1.48427e-05
1.62434e-05
1.72415e-05
1.78919e-05
1.82786e-05
1.84896e-05
1.85961e-05
1.86413e-05
1.86375e-05
1.85768e-05
1.84553e-05
1.82817e-05
1.80796e-05
1.78725e-05
1.76796e-05
1.75149e-05
1.73898e-05
1.73269e-05
0
0
0
0
0
0
0
0
0
0
0
0
4.56374e-11
6.27278e-10
5.26169e-09
1.38712e-07
6.90816e-07
1.89286e-06
3.84045e-06
6.53027e-06
9.81463e-06
1.34189e-05
1.70106e-05
2.02897e-05
2.30496e-05
2.51922e-05
2.67208e-05
2.77194e-05
2.83158e-05
2.86421e-05
2.88052e-05
2.8873e-05
2.88678e-05
2.87794e-05
2.85978e-05
2.83355e-05
2.80286e-05
2.77121e-05
2.74136e-05
2.71577e-05
2.69646e-05
2.68687e-05
0
0
0
0
0
0
0
0
0
0
0
2.79529e-12
9.46318e-11
1.19579e-09
9.42428e-09
2.5268e-07
1.17496e-06
3.09189e-06
6.13941e-06
1.02956e-05
1.53213e-05
2.07974e-05
2.62275e-05
3.11685e-05
3.53222e-05
3.855e-05
4.08603e-05
4.23793e-05
4.32953e-05
4.37996e-05
4.40519e-05
4.41584e-05
4.4156e-05
4.4031e-05
4.37629e-05
4.33737e-05
4.29144e-05
4.24354e-05
4.19804e-05
4.15905e-05
4.12965e-05
4.11497e-05
0
0
0
0
0
0
0
0
0
0
0
8.21528e-12
1.93477e-10
2.23184e-09
1.65985e-08
4.49604e-07
1.97147e-06
4.99383e-06
9.70545e-06
1.60459e-05
2.36361e-05
3.18439e-05
3.99326e-05
4.72612e-05
5.34121e-05
5.81968e-05
6.16337e-05
6.39089e-05
6.52942e-05
6.60634e-05
6.64527e-05
6.66242e-05
6.66323e-05
6.64558e-05
6.60635e-05
6.54925e-05
6.48119e-05
6.40982e-05
6.34211e-05
6.28423e-05
6.24032e-05
6.2179e-05
0
0
0
0
0
0
0
0
0
0
0
2.01661e-11
3.83895e-10
4.09508e-09
2.87916e-08
7.81668e-07
3.25823e-06
7.96149e-06
1.51475e-05
2.46892e-05
3.59967e-05
4.8121e-05
5.99867e-05
7.06875e-05
7.96472e-05
8.66142e-05
9.16292e-05
9.49642e-05
9.70066e-05
9.81508e-05
9.87403e-05
9.90111e-05
9.90384e-05
9.87929e-05
9.82354e-05
9.74172e-05
9.64321e-05
9.53982e-05
9.44219e-05
9.35887e-05
9.29525e-05
9.26194e-05
0
0
0
0
0
0
0
0
0
0
0
4.46863e-11
7.46996e-10
7.46148e-09
5.60325e-08
1.33653e-06
5.30277e-06
1.25216e-05
2.33289e-05
3.74846e-05
5.40779e-05
7.17031e-05
8.88301e-05
0.000104201
0.000117024
0.00012697
0.000134124
0.000138885
0.000141805
0.000143451
0.000144309
0.000144707
0.00014475
0.000144405
0.000143627
0.000142479
0.000141092
0.00013964
0.000138275
0.00013711
0.000136217
0.00013574
0
0
0
0
0
0
0
0
0
0
1.87323e-12
9.47488e-11
1.43573e-09
1.33841e-08
1.79794e-07
2.30265e-06
8.44417e-06
1.93409e-05
3.53574e-05
5.60314e-05
7.99658e-05
0.000105127
0.000129392
0.000151045
0.000169011
0.000182883
0.000192835
0.00019945
0.000203508
0.000205804
0.000207009
0.000207571
0.000207637
0.000207175
0.00020613
0.00020457
0.000202676
0.000200689
0.000198817
0.000197221
0.000195994
0.00019533
0
0
0
0
0
0
0
0
0
0
6.89241e-12
1.9809e-10
2.66045e-09
2.30324e-08
4.41868e-07
3.89201e-06
1.31929e-05
2.93281e-05
5.26467e-05
8.23052e-05
0.000116195
0.000151441
0.000185155
0.000215031
0.000239658
0.00025857
0.000272089
0.000281051
0.000286529
0.000289623
0.000291245
0.000291992
0.000292066
0.000291444
0.000290065
0.000288006
0.000285497
0.000282845
0.000280329
0.000278175
0.000276512
0.000275601
0
0
0
0
0
0
0
0
0
0
1.79166e-11
3.84127e-10
4.69832e-09
3.83176e-08
9.02888e-07
6.36833e-06
2.01805e-05
4.35922e-05
7.68549e-05
0.000118539
0.000165538
0.000213863
0.000259658
0.000299903
0.000332838
0.000357999
0.000375921
0.000387758
0.00039496
0.000399017
0.000401145
0.000402095
0.000402128
0.000401237
0.000399388
0.000396681
0.000393405
0.000389929
0.00038662
0.000383783
0.000381582
0.000380373
0
0
0
0
0
0
0
0
0
0
3.77408e-11
7.03728e-10
8.03203e-09
6.0984e-08
1.66982e-06
1.01289e-05
3.02391e-05
6.35033e-05
0.000109935
0.000167237
0.000230981
0.000295819
0.000356727
0.000409871
0.000453126
0.000486038
0.000509397
0.000524748
0.000534036
0.000539263
0.000542014
0.000543202
0.000543159
0.00054191
0.000539475
0.00053598
0.000531781
0.000527317
0.000523065
0.000519429
0.000516621
0.000515095
0
0
0
0
0
0
0
0
0
0
7.40269e-11
1.2568e-09
1.31107e-08
9.35042e-08
2.88484e-06
1.56579e-05
4.43206e-05
9.06177e-05
0.000154115
0.00023122
0.000315766
0.000400677
0.000479539
0.000547735
0.000602928
0.000644778
0.000674379
0.000693791
0.000705584
0.000712282
0.000715818
0.000717252
0.00071703
0.000715252
0.00071201
0.000707469
0.000702077
0.000696366
0.00069095
0.000686338
0.000682801
0.000680919
0
0
0
0
0
0
0
0
0
3.68059e-12
1.40814e-10
2.12897e-09
2.0617e-08
1.40444e-07
4.74489e-06
2.36038e-05
6.36612e-05
0.000126746
0.000211487
0.000312548
0.000421899
0.000530828
0.000631591
0.000718554
0.000788737
0.000841787
0.000879231
0.000903778
0.000918723
0.000927194
0.000931579
0.000933236
0.000932819
0.000930526
0.000926496
0.000920956
0.000914407
0.000907469
0.000900852
0.000895174
0.000890801
0.000888459
0
0
0
0
0
0
0
0
0
9.23857e-12
2.45928e-10
3.42324e-09
3.12256e-08
2.04179e-07
7.47457e-06
3.45825e-05
8.91724e-05
0.000173041
0.000283754
0.000414246
0.00055421
0.000692225
0.000818246
0.000925853
0.00101215
0.00107718
0.00112316
0.00115358
0.00117233
0.00118302
0.00118846
0.00119039
0.00118976
0.0011869
0.00118201
0.00117538
0.00116754
0.0011592
0.00115118
0.00114421
0.00113878
0.00113586
0
0
0
0
0
0
0
0
0
1.71138e-11
3.89384e-10
5.03131e-09
4.42267e-08
2.79812e-07
1.11538e-05
4.90317e-05
0.000122095
0.000232063
0.000374962
0.000540746
0.000715458
0.000885202
0.00103951
0.00117164
0.00127801
0.00135833
0.00141518
0.00145294
0.00147636
0.0014897
0.00149632
0.00149851
0.00149759
0.00149405
0.00148817
0.0014803
0.00147102
0.0014611
0.00145144
0.00144297
0.00143632
0.00143276
0
0
0
0
0
0
0
0
0
2.76772e-11
5.53853e-10
6.84323e-09
5.92515e-08
3.64819e-07
1.61691e-05
6.8336e-05
0.000164975
0.000306951
0.000487506
0.000692967
0.000906874
0.00111429
0.00130328
0.00146555
0.00159661
0.00169593
0.00176653
0.00181354
0.00184267
0.0018591
0.00186705
0.00186949
0.00186814
0.0018638
0.00185682
0.00184764
0.00183678
0.0018251
0.00181358
0.00180338
0.00179529
0.00179093
0
0
0
0
0
0
0
0
0
3.77949e-11
7.13175e-10
8.83834e-09
7.52178e-08
4.51243e-07
2.30745e-05
9.40816e-05
0.000219647
0.000398998
0.000622454
0.000873727
0.00113452
0.00138793
0.0016196
0.00181895
0.00198027
0.00210303
0.00219066
0.00224913
0.00228528
0.00230555
0.00231521
0.00231804
0.00231632
0.00231119
0.0023031
0.00229251
0.00227985
0.00226608
0.00225235
0.00224005
0.0022302
0.00222484
0
0
0
0
0
0
0
0
0
4.81926e-11
9.30455e-10
1.14104e-08
9.61022e-08
1.67694e-06
3.35527e-05
0.000127162
0.000286947
0.000509635
0.000783024
0.0010889
0.00140709
0.0017171
0.00200099
0.00224567
0.0024442
0.00259578
0.00270449
0.00277731
0.00282237
0.00284758
0.00285955
0.00286305
0.00286103
0.00285505
0.00284562
0.00283322
0.00281836
0.00280211
0.0027858
0.00277105
0.00275916
0.00275267
0
0
0
0
0
0
0
0
0
5.85891e-11
1.14e-09
1.36056e-08
1.13043e-07
4.10693e-06
4.79753e-05
0.000168017
0.000367696
0.000641519
0.000974985
0.00134812
0.00173709
0.00211632
0.00246376
0.00276333
0.00300683
0.00319312
0.00332682
0.00341657
0.00347232
0.00350357
0.00351853
0.00352311
0.00352102
0.00351424
0.0035034
0.0034889
0.00347137
0.00345203
0.00343236
0.00341434
0.00339961
0.0033915
0
0
0
0
0
0
0
0
0
6.54118e-11
1.30444e-09
1.58968e-08
1.3312e-07
7.5275e-06
6.59093e-05
0.000216491
0.000462796
0.000798089
0.00120602
0.00166275
0.0021384
0.00260157
0.00302495
0.00338936
0.00368534
0.0039118
0.00407444
0.00418393
0.00425221
0.00429048
0.00430872
0.00431428
0.00431183
0.00430384
0.00429112
0.00427409
0.00425341
0.00423047
0.00420707
0.00418553
0.00416791
0.00415826
0
0
0
0
0
0
0
0
0
6.08682e-11
1.26617e-09
1.61108e-08
1.37847e-07
1.13731e-05
8.65353e-05
0.000273309
0.000576095
0.000987431
0.00148807
0.00204767
0.0026277
0.0031895
0.00370003
0.00413721
0.00449113
0.00476163
0.00495583
0.00508581
0.00516654
0.00521203
0.00523352
0.00523978
0.00523658
0.00522692
0.00521191
0.00519205
0.00516798
0.00514123
0.00511396
0.00508887
0.00506836
0.00505721
0
0
0
0
0
0
0
0
0
4.64184e-11
1.09625e-09
1.49882e-08
1.32682e-07
1.55023e-05
0.000110569
0.000342346
0.000716629
0.00122422
0.00183931
0.00252161
0.00322327
0.00389544
0.00449958
0.00501233
0.00542461
0.00573828
0.00596272
0.00611208
0.00620417
0.00625571
0.00627974
0.0062863
0.00628203
0.00627049
0.00625305
0.00623034
0.00620302
0.00617274
0.00614186
0.00611336
0.00608994
0.00607722
0
0
0
0
0
0
0
0
0
2.85655e-11
8.63555e-10
1.28394e-08
1.16448e-07
2.03293e-05
0.000140898
0.000431539
0.000897965
0.001526
0.0022794
0.00310444
0.0039392
0.00472644
0.00542308
0.00600668
0.00647107
0.00682191
0.00707161
0.00723679
0.00733733
0.00739271
0.00741829
0.00742479
0.00741942
0.0074061
0.00738643
0.00736129
0.00733137
0.00729836
0.00726458
0.00723317
0.00720702
0.00719273
0
0
0
0
0
0
0
0
0
1.43975e-11
6.21246e-10
1.02716e-08
9.13875e-08
2.72922e-05
0.000182992
0.000551482
0.00113544
0.00191052
0.00282477
0.0038066
0.00477866
0.0056751
0.00645372
0.00709561
0.00760007
0.00797788
0.00824486
0.00842059
0.0085264
0.00858315
0.00860883
0.00861517
0.00860898
0.0085944
0.00857331
0.00854672
0.00851537
0.0084809
0.0084454
0.00841199
0.00838372
0.00836809
0
0
0
0
0
0
0
0
0
5.00132e-12
4.42218e-10
7.71836e-09
6.32097e-08
3.91665e-05
0.000244629
0.000713665
0.00144214
0.00238887
0.00347988
0.0046224
0.00572481
0.00671699
0.0075594
0.00824072
0.00876898
0.00916075
0.00943577
0.00961626
0.00972443
0.00978153
0.0098063
0.00981205
0.00980586
0.00979137
0.00977047
0.00974423
0.00971336
0.00967925
0.00964364
0.0096095
0.00958002
0.00956346
0
0
0
0
0
0
0
0
0
0
3.18458e-10
5.28468e-09
3.97034e-08
6.00557e-05
0.000336697
0.000931709
0.00182913
0.00296549
0.00423993
0.00553753
0.00675295
0.00781611
0.00869759
0.00939684
0.00993121
0.0103237
0.0105981
0.0107777
0.0108853
0.0109427
0.0109676
0.0109733
0.0109677
0.0109549
0.0109366
0.0109134
0.0108857
0.0108545
0.010821
0.0107879
0.0107584
0.0107414
0
0
0
0
0
0
0
0
0
0
2.8005e-10
4.1111e-09
2.5783e-08
9.43782e-05
0.000470183
0.00121806
0.00230541
0.00364125
0.00509287
0.00652293
0.0078223
0.00892838
0.00982293
0.0105187
0.0110432
0.0114257
0.0116921
0.0118669
0.0119733
0.0120311
0.0120567
0.0120633
0.01206
0.0120512
0.0120384
0.0120212
0.0119996
0.011974
0.0119452
0.0119154
0.0118878
0.0118712
0
0
0
0
0
0
0
0
0
2.48886e-12
3.04593e-10
3.29217e-09
1.58779e-08
0.000149241
0.000660805
0.00158711
0.00287395
0.00440104
0.00600953
0.00754569
0.00889941
0.0100187
0.0109012
0.0115744
0.0120757
0.0124394
0.0126931
0.0128614
0.0129661
0.0130243
0.0130512
0.01306
0.0130605
0.0130577
0.0130522
0.0130434
0.0130304
0.013013
0.0129916
0.0129678
0.0129442
0.0129289
0
0
0
0
0
0
0
0
0
7.40982e-12
3.38868e-10
2.80676e-09
7.94345e-06
0.000236448
0.000912899
0.00203449
0.00352331
0.00523053
0.00697143
0.00858375
0.00996184
0.0110681
0.0119181
0.0125539
0.0130217
0.0133599
0.0135975
0.013758
0.0138598
0.013918
0.0139463
0.0139575
0.0139619
0.0139652
0.0139677
0.0139678
0.0139642
0.013956
0.013943
0.0139262
0.0139079
0.0138951
0
0
0
0
0
0
0
0
0
1.91054e-11
4.30182e-10
2.74399e-09
3.90573e-05
0.000371736
0.00121796
0.00254405
0.00423509
0.00610558
0.00795463
0.00961642
0.0109943
0.0120679
0.0128719
0.0134607
0.013888
0.0141965
0.0144161
0.0145675
0.0146653
0.0147224
0.0147514
0.0147643
0.0147712
0.0147784
0.0147869
0.0147944
0.0147987
0.014798
0.0147918
0.0147811
0.0147676
0.0147574
0
0
0
0
0
0
0
0
0
4.51728e-11
5.92228e-10
2.89877e-09
8.98941e-05
0.000553368
0.00157775
0.00310752
0.00498892
0.0070047
0.00893956
0.0106293
0.0119889
0.0130174
0.0137681
0.0143043
0.0146873
0.0149639
0.0151637
0.0153041
0.0153964
0.0154511
0.0154794
0.0154924
0.0154998
0.0155082
0.0155193
0.015531
0.0155401
0.0155441
0.0155421
0.015535
0.0155247
0.0155167
0
0
0
0
0
0
0
0
0
9.07294e-11
8.11897e-10
3.17944e-09
0.000162008
0.000785227
0.00199701
0.00372372
0.00577817
0.00791782
0.00991713
0.0116173
0.0129454
0.0139217
0.0146153
0.0150964
0.0154334
0.0156762
0.0158537
0.0159807
0.0160657
0.0161164
0.0161423
0.0161535
0.0161592
0.0161663
0.0161772
0.0161899
0.016201
0.0162072
0.016207
0.0162012
0.016192
0.0161851
0
0
0
0
0
0
0
0
8.43013e-11