/*--------------------------------*- C++ -*----------------------------------*\
| =========                 |                                                 |
| \\      /  F ield         | OpenFOAM: The Open Source CFD Toolbox           |
|  \\    /   O peration     | Version:  2412                                  |
|   \\  /    A nd           | Website:  www.openfoam.com                      |
|    \\/     M anipulation  |                                                 |
\*---------------------------------------------------------------------------*/
FoamFile
{
    version     2.0;
    format      ascii;
    arch        "LSB;label=32;scalar=64";
    class       volVectorField;
    location    "0";
    object      C;
}
// * * * * * * * * * * * * * * * * * * * * * * * * * * * * * * * * * * * * * //

dimensions      [0 1 0 0 0 0 0];

internalField   nonuniform List<vector> 
8988
(
(0.00453381 0.0698426 0.5)
(0.0045338 0.0695244 0.5)
(0.00453379 0.0691841 0.5)
(0.00453378 0.0688201 0.5)
(0.00453377 0.0684308 0.5)
(0.00453376 0.0680144 0.5)
(0.00453375 0.0675691 0.5)
(0.00453373 0.0670929 0.5)
(0.00453372 0.0665835 0.5)
(0.0045337 0.0660387 0.5)
(0.00453369 0.065456 0.5)
(0.00453367 0.0648329 0.5)
(0.00453365 0.0641664 0.5)
(0.00453363 0.0634536 0.5)
(0.00453361 0.0626912 0.5)
(0.00453359 0.0618758 0.5)
(0.00453356 0.0610038 0.5)
(0.00453353 0.0600711 0.5)
(0.00453351 0.0590736 0.5)
(0.00453348 0.0580067 0.5)
(0.00453344 0.0568657 0.5)
(0.00453341 0.0556453 0.5)
(0.00453337 0.0543401 0.5)
(0.00453333 0.0529442 0.5)
(0.00453329 0.0514512 0.5)
(0.00453325 0.0498545 0.5)
(0.0045332 0.0481467 0.5)
(0.00453315 0.0463202 0.5)
(0.00453309 0.0443667 0.5)
(0.00453303 0.0422775 0.5)
(0.00453297 0.040043 0.5)
(0.0045329 0.0376531 0.5)
(0.00453283 0.0350971 0.5)
(0.00453275 0.0323635 0.5)
(0.00453267 0.0294398 0.5)
(0.00453258 0.0263128 0.5)
(0.00453249 0.0229684 0.5)
(0.00453239 0.0193916 0.5)
(0.00453228 0.0155661 0.5)
(0.00453216 0.0114746 0.5)
(0.00453204 0.00709875 0.5)
(0.00453191 0.00241866 0.5)
(0.0135788 0.0698283 0.5)
(0.0135787 0.0695102 0.5)
(0.0135787 0.0691699 0.5)
(0.0135787 0.068806 0.5)
(0.0135786 0.0684168 0.5)
(0.0135786 0.0680005 0.5)
(0.0135786 0.0675553 0.5)
(0.0135785 0.0670791 0.5)
(0.0135785 0.0665698 0.5)
(0.0135784 0.0660252 0.5)
(0.0135784 0.0654426 0.5)
(0.0135783 0.0648196 0.5)
(0.0135783 0.0641532 0.5)
(0.0135782 0.0634406 0.5)
(0.0135782 0.0626783 0.5)
(0.0135781 0.0618631 0.5)
(0.013578 0.0609913 0.5)
(0.0135779 0.0600588 0.5)
(0.0135778 0.0590615 0.5)
(0.0135778 0.0579948 0.5)
(0.0135777 0.056854 0.5)
(0.0135776 0.0556339 0.5)
(0.0135774 0.054329 0.5)
(0.0135773 0.0529333 0.5)
(0.0135772 0.0514407 0.5)
(0.0135771 0.0498442 0.5)
(0.0135769 0.0481368 0.5)
(0.0135768 0.0463107 0.5)
(0.0135766 0.0443577 0.5)
(0.0135764 0.0422688 0.5)
(0.0135762 0.0400348 0.5)
(0.013576 0.0376454 0.5)
(0.0135758 0.03509 0.5)
(0.0135756 0.0323568 0.5)
(0.0135753 0.0294337 0.5)
(0.0135751 0.0263074 0.5)
(0.0135748 0.0229637 0.5)
(0.0135745 0.0193876 0.5)
(0.0135742 0.0155629 0.5)
(0.0135738 0.0114723 0.5)
(0.0135735 0.00709729 0.5)
(0.0135731 0.00241817 0.5)
(0.0225784 0.0697999 0.5)
(0.0225784 0.0694819 0.5)
(0.0225784 0.0691417 0.5)
(0.0225783 0.068778 0.5)
(0.0225782 0.0683889 0.5)
(0.0225782 0.0679728 0.5)
(0.0225781 0.0675278 0.5)
(0.0225781 0.0670518 0.5)
(0.022578 0.0665427 0.5)
(0.0225779 0.0659983 0.5)
(0.0225778 0.065416 0.5)
(0.0225777 0.0647932 0.5)
(0.0225777 0.0641271 0.5)
(0.0225776 0.0634147 0.5)
(0.0225774 0.0626528 0.5)
(0.0225773 0.0618379 0.5)
(0.0225772 0.0609664 0.5)
(0.0225771 0.0600343 0.5)
(0.0225769 0.0590374 0.5)
(0.0225768 0.0579712 0.5)
(0.0225766 0.0568309 0.5)
(0.0225765 0.0556113 0.5)
(0.0225763 0.0543069 0.5)
(0.0225761 0.0529118 0.5)
(0.0225759 0.0514197 0.5)
(0.0225756 0.0498239 0.5)
(0.0225754 0.0481172 0.5)
(0.0225752 0.0462919 0.5)
(0.0225749 0.0443396 0.5)
(0.0225746 0.0422516 0.5)
(0.0225743 0.0400185 0.5)
(0.0225739 0.0376301 0.5)
(0.0225736 0.0350757 0.5)
(0.0225732 0.0323437 0.5)
(0.0225728 0.0294217 0.5)
(0.0225724 0.0262967 0.5)
(0.0225719 0.0229544 0.5)
(0.0225714 0.0193797 0.5)
(0.0225708 0.0155566 0.5)
(0.0225703 0.0114676 0.5)
(0.0225697 0.0070944 0.5)
(0.022569 0.00241718 0.5)
(0.0315331 0.0697576 0.5)
(0.031533 0.0694398 0.5)
(0.031533 0.0690998 0.5)
(0.0315329 0.0687363 0.5)
(0.0315328 0.0683475 0.5)
(0.0315327 0.0679316 0.5)
(0.0315326 0.0674868 0.5)
(0.0315325 0.0670112 0.5)
(0.0315325 0.0665024 0.5)
(0.0315323 0.0659583 0.5)
(0.0315322 0.0653763 0.5)
(0.0315321 0.0647539 0.5)
(0.031532 0.0640882 0.5)
(0.0315318 0.0633763 0.5)
(0.0315317 0.0626149 0.5)
(0.0315315 0.0618005 0.5)
(0.0315314 0.0609295 0.5)
(0.0315312 0.0599979 0.5)
(0.031531 0.0590016 0.5)
(0.0315308 0.0579361 0.5)
(0.0315306 0.0567964 0.5)
(0.0315303 0.0555776 0.5)
(0.0315301 0.054274 0.5)
(0.0315298 0.0528797 0.5)
(0.0315295 0.0513886 0.5)
(0.0315292 0.0497938 0.5)
(0.0315289 0.0480881 0.5)
(0.0315285 0.0462638 0.5)
(0.0315281 0.0443127 0.5)
(0.0315277 0.042226 0.5)
(0.0315273 0.0399942 0.5)
(0.0315268 0.0376073 0.5)
(0.0315263 0.0350544 0.5)
(0.0315258 0.0323241 0.5)
(0.0315252 0.0294039 0.5)
(0.0315246 0.0262807 0.5)
(0.031524 0.0229405 0.5)
(0.0315233 0.019368 0.5)
(0.0315225 0.0155471 0.5)
(0.0315217 0.0114607 0.5)
(0.0315209 0.0070901 0.5)
(0.03152 0.00241572 0.5)
(0.0404429 0.0697017 0.5)
(0.0404428 0.0693841 0.5)
(0.0404427 0.0690445 0.5)
(0.0404426 0.0686812 0.5)
(0.0404425 0.0682927 0.5)
(0.0404424 0.0678772 0.5)
(0.0404423 0.0674328 0.5)
(0.0404422 0.0669575 0.5)
(0.0404421 0.0664491 0.5)
(0.0404419 0.0659054 0.5)
(0.0404418 0.0653239 0.5)
(0.0404416 0.064702 0.5)
(0.0404415 0.0640369 0.5)
(0.0404413 0.0633255 0.5)
(0.0404411 0.0625647 0.5)
(0.0404409 0.061751 0.5)
(0.0404407 0.0608807 0.5)
(0.0404405 0.0599499 0.5)
(0.0404402 0.0589544 0.5)
(0.0404399 0.0578896 0.5)
(0.0404397 0.0567509 0.5)
(0.0404394 0.055533 0.5)
(0.040439 0.0542305 0.5)
(0.0404387 0.0528374 0.5)
(0.0404383 0.0513474 0.5)
(0.0404379 0.0497539 0.5)
(0.0404375 0.0480495 0.5)
(0.0404371 0.0462267 0.5)
(0.0404366 0.0442772 0.5)
(0.0404361 0.0421922 0.5)
(0.0404355 0.0399622 0.5)
(0.0404349 0.0375771 0.5)
(0.0404343 0.0350263 0.5)
(0.0404336 0.0322982 0.5)
(0.0404329 0.0293803 0.5)
(0.0404321 0.0262597 0.5)
(0.0404313 0.0229221 0.5)
(0.0404304 0.0193525 0.5)
(0.0404294 0.0155347 0.5)
(0.0404284 0.0114515 0.5)
(0.0404274 0.00708442 0.5)
(0.0404262 0.00241378 0.5)
(0.049308 0.0696325 0.5)
(0.0493079 0.0693152 0.5)
(0.0493078 0.0689759 0.5)
(0.0493077 0.068613 0.5)
(0.0493076 0.0682249 0.5)
(0.0493075 0.0678098 0.5)
(0.0493073 0.0673658 0.5)
(0.0493072 0.066891 0.5)
(0.0493071 0.0663831 0.5)
(0.0493069 0.06584 0.5)
(0.0493067 0.0652591 0.5)
(0.0493065 0.0646378 0.5)
(0.0493063 0.0639733 0.5)
(0.0493061 0.0632626 0.5)
(0.0493059 0.0625026 0.5)
(0.0493056 0.0616896 0.5)
(0.0493054 0.0608202 0.5)
(0.0493051 0.0598903 0.5)
(0.0493048 0.0588958 0.5)
(0.0493045 0.0578322 0.5)
(0.0493042 0.0566946 0.5)
(0.0493038 0.0554779 0.5)
(0.0493034 0.0541766 0.5)
(0.049303 0.0527849 0.5)
(0.0493025 0.0512964 0.5)
(0.0493021 0.0497045 0.5)
(0.0493015 0.0480018 0.5)
(0.049301 0.0461808 0.5)
(0.0493004 0.0442333 0.5)
(0.0492998 0.0421503 0.5)
(0.0492991 0.0399225 0.5)
(0.0492984 0.0375398 0.5)
(0.0492976 0.0349915 0.5)
(0.0492968 0.0322661 0.5)
(0.049296 0.0293512 0.5)
(0.049295 0.0262336 0.5)
(0.049294 0.0228993 0.5)
(0.049293 0.0193332 0.5)
(0.0492918 0.0155192 0.5)
(0.0492906 0.0114401 0.5)
(0.0492893 0.00707739 0.5)
(0.0492879 0.00241138 0.5)
(0.0581287 0.0695503 0.5)
(0.0581286 0.0692334 0.5)
(0.0581285 0.0688945 0.5)
(0.0581284 0.068532 0.5)
(0.0581283 0.0681443 0.5)
(0.0581281 0.0677297 0.5)
(0.058128 0.0672863 0.5)
(0.0581278 0.066812 0.5)
(0.0581276 0.0663048 0.5)
(0.0581274 0.0657622 0.5)
(0.0581272 0.065182 0.5)
(0.058127 0.0645615 0.5)
(0.0581268 0.0638978 0.5)
(0.0581265 0.0631879 0.5)
(0.0581263 0.0624288 0.5)
(0.058126 0.0616168 0.5)
(0.0581257 0.0607484 0.5)
(0.0581253 0.0598196 0.5)
(0.058125 0.0588263 0.5)
(0.0581246 0.0577639 0.5)
(0.0581242 0.0566276 0.5)
(0.0581238 0.0554124 0.5)
(0.0581233 0.0541126 0.5)
(0.0581229 0.0527226 0.5)
(0.0581223 0.0512358 0.5)
(0.0581218 0.0496458 0.5)
(0.0581212 0.0479451 0.5)
(0.0581205 0.0461263 0.5)
(0.0581199 0.044181 0.5)
(0.0581191 0.0421005 0.5)
(0.0581184 0.0398754 0.5)
(0.0581175 0.0374955 0.5)
(0.0581166 0.0349502 0.5)
(0.0581157 0.032228 0.5)
(0.0581147 0.0293165 0.5)
(0.0581136 0.0262026 0.5)
(0.0581124 0.0228723 0.5)
(0.0581112 0.0193104 0.5)
(0.0581098 0.0155009 0.5)
(0.0581084 0.0114266 0.5)
(0.0581069 0.00706903 0.5)
(0.0581053 0.00240854 0.5)
(0.0669052 0.0694553 0.5)
(0.0669051 0.0691389 0.5)
(0.066905 0.0688004 0.5)
(0.0669048 0.0684385 0.5)
(0.0669047 0.0680513 0.5)
(0.0669045 0.0676373 0.5)
(0.0669043 0.0671944 0.5)
(0.0669041 0.0667208 0.5)
(0.0669039 0.0662143 0.5)
(0.0669037 0.0656725 0.5)
(0.0669035 0.0650931 0.5)
(0.0669032 0.0644734 0.5)
(0.066903 0.0638106 0.5)
(0.0669027 0.0631017 0.5)
(0.0669024 0.0623436 0.5)
(0.0669021 0.0615327 0.5)
(0.0669017 0.0606655 0.5)
(0.0669014 0.059738 0.5)
(0.066901 0.058746 0.5)
(0.0669005 0.057685 0.5)
(0.0669001 0.0565503 0.5)
(0.0668996 0.0553367 0.5)
(0.0668991 0.0540388 0.5)
(0.0668985 0.0526506 0.5)
(0.0668979 0.0511659 0.5)
(0.0668973 0.049578 0.5)
(0.0668966 0.0478797 0.5)
(0.0668959 0.0460633 0.5)
(0.0668951 0.0441207 0.5)
(0.0668943 0.042043 0.5)
(0.0668934 0.0398209 0.5)
(0.0668925 0.0374443 0.5)
(0.0668915 0.0349025 0.5)
(0.0668904 0.032184 0.5)
(0.0668892 0.0292765 0.5)
(0.066888 0.0261669 0.5)
(0.0668867 0.0228411 0.5)
(0.0668853 0.0192841 0.5)
(0.0668837 0.0154798 0.5)
(0.0668821 0.011411 0.5)
(0.0668804 0.00705938 0.5)
(0.0668785 0.00240525 0.5)
(0.0756377 0.069348 0.5)
(0.0756375 0.0690321 0.5)
(0.0756374 0.0686941 0.5)
(0.0756372 0.0683327 0.5)
(0.0756371 0.0679462 0.5)
(0.0756369 0.0675328 0.5)
(0.0756367 0.0670906 0.5)
(0.0756365 0.0666177 0.5)
(0.0756362 0.0661119 0.5)
(0.075636 0.065571 0.5)
(0.0756357 0.0649925 0.5)
(0.0756355 0.0643737 0.5)
(0.0756352 0.063712 0.5)
(0.0756349 0.0630042 0.5)
(0.0756345 0.0622472 0.5)
(0.0756342 0.0614376 0.5)
(0.0756338 0.0605717 0.5)
(0.0756334 0.0596457 0.5)
(0.0756329 0.0586552 0.5)
(0.0756325 0.0575959 0.5)
(0.075632 0.056463 0.5)
(0.0756314 0.0552512 0.5)
(0.0756308 0.0539553 0.5)
(0.0756302 0.0525693 0.5)
(0.0756296 0.0510869 0.5)
(0.0756289 0.0495014 0.5)
(0.0756281 0.0478057 0.5)
(0.0756273 0.0459922 0.5)
(0.0756265 0.0440526 0.5)
(0.0756255 0.0419781 0.5)
(0.0756245 0.0397594 0.5)
(0.0756235 0.0373865 0.5)
(0.0756224 0.0348486 0.5)
(0.0756212 0.0321343 0.5)
(0.0756199 0.0292313 0.5)
(0.0756185 0.0261264 0.5)
(0.075617 0.0228058 0.5)
(0.0756154 0.0192543 0.5)
(0.0756138 0.0154558 0.5)
(0.075612 0.0113934 0.5)
(0.07561 0.00704848 0.5)
(0.075608 0.00240153 0.5)
(0.0843263 0.0692287 0.5)
(0.0843262 0.0689132 0.5)
(0.084326 0.0685759 0.5)
(0.0843258 0.0682151 0.5)
(0.0843256 0.0678292 0.5)
(0.0843254 0.0674165 0.5)
(0.0843252 0.0669751 0.5)
(0.084325 0.0665031 0.5)
(0.0843247 0.0659982 0.5)
(0.0843245 0.0654582 0.5)
(0.0843242 0.0648806 0.5)
(0.0843239 0.0642629 0.5)
(0.0843236 0.0636023 0.5)
(0.0843232 0.0628958 0.5)
(0.0843229 0.0621401 0.5)
(0.0843225 0.0613319 0.5)
(0.084322 0.0604675 0.5)
(0.0843216 0.059543 0.5)
(0.0843211 0.0585543 0.5)
(0.0843206 0.0574968 0.5)
(0.08432 0.0563658 0.5)
(0.0843195 0.0551561 0.5)
(0.0843188 0.0538624 0.5)
(0.0843181 0.0524788 0.5)
(0.0843174 0.0509989 0.5)
(0.0843167 0.0494162 0.5)
(0.0843158 0.0477235 0.5)
(0.0843149 0.045913 0.5)
(0.084314 0.0439767 0.5)
(0.084313 0.0419058 0.5)
(0.0843119 0.039691 0.5)
(0.0843108 0.0373221 0.5)
(0.0843095 0.0347886 0.5)
(0.0843082 0.032079 0.5)
(0.0843068 0.029181 0.5)
(0.0843053 0.0260815 0.5)
(0.0843037 0.0227665 0.5)
(0.0843019 0.0192211 0.5)
(0.0843001 0.0154292 0.5)
(0.0842981 0.0113738 0.5)
(0.084296 0.00703634 0.5)
(0.0842937 0.0023974 0.5)
(0.0929713 0.0690976 0.5)
(0.0929712 0.0687828 0.5)
(0.092971 0.0684461 0.5)
(0.0929708 0.068086 0.5)
(0.0929706 0.0677008 0.5)
(0.0929704 0.0672889 0.5)
(0.0929701 0.0668483 0.5)
(0.0929699 0.0663772 0.5)
(0.0929696 0.0658732 0.5)
(0.0929693 0.0653342 0.5)
(0.092969 0.0647578 0.5)
(0.0929687 0.0641413 0.5)
(0.0929684 0.0634819 0.5)
(0.092968 0.0627767 0.5)
(0.0929676 0.0620224 0.5)
(0.0929672 0.0612158 0.5)
(0.0929667 0.060353 0.5)
(0.0929662 0.0594303 0.5)
(0.0929657 0.0584434 0.5)
(0.0929651 0.0573879 0.5)
(0.0929645 0.0562591 0.5)
(0.0929639 0.0550517 0.5)
(0.0929632 0.0537605 0.5)
(0.0929625 0.0523794 0.5)
(0.0929617 0.0509024 0.5)
(0.0929609 0.0493226 0.5)
(0.09296 0.0476331 0.5)
(0.092959 0.0458261 0.5)
(0.092958 0.0438935 0.5)
(0.0929569 0.0418265 0.5)
(0.0929557 0.0396158 0.5)
(0.0929545 0.0372515 0.5)
(0.0929532 0.0347228 0.5)
(0.0929517 0.0320182 0.5)
(0.0929502 0.0291257 0.5)
(0.0929486 0.0260321 0.5)
(0.0929468 0.0227234 0.5)
(0.092945 0.0191847 0.5)
(0.092943 0.0154 0.5)
(0.0929408 0.0113522 0.5)
(0.0929385 0.00702302 0.5)
(0.0929361 0.00239286 0.5)
(0.101573 0.0689552 0.5)
(0.101573 0.068641 0.5)
(0.101573 0.068305 0.5)
(0.101572 0.0679456 0.5)
(0.101572 0.0675613 0.5)
(0.101572 0.0671502 0.5)
(0.101572 0.0667106 0.5)
(0.101571 0.0662403 0.5)
(0.101571 0.0657374 0.5)
(0.101571 0.0651996 0.5)
(0.10157 0.0646243 0.5)
(0.10157 0.0640091 0.5)
(0.10157 0.0633511 0.5)
(0.101569 0.0626473 0.5)
(0.101569 0.0618946 0.5)
(0.101568 0.0610896 0.5)
(0.101568 0.0602286 0.5)
(0.101567 0.0593078 0.5)
(0.101567 0.0583229 0.5)
(0.101566 0.0572696 0.5)
(0.101566 0.0561431 0.5)
(0.101565 0.0549383 0.5)
(0.101564 0.0536496 0.5)
(0.101563 0.0522715 0.5)
(0.101563 0.0507975 0.5)
(0.101562 0.049221 0.5)
(0.101561 0.0475349 0.5)
(0.10156 0.0457316 0.5)
(0.101559 0.043803 0.5)
(0.101558 0.0417403 0.5)
(0.101556 0.0395342 0.5)
(0.101555 0.0371747 0.5)
(0.101553 0.0346512 0.5)
(0.101552 0.0319522 0.5)
(0.10155 0.0290657 0.5)
(0.101549 0.0259784 0.5)
(0.101547 0.0226766 0.5)
(0.101545 0.0191452 0.5)
(0.101543 0.0153683 0.5)
(0.10154 0.0113288 0.5)
(0.101538 0.00700855 0.5)
(0.101535 0.00238793 0.5)
(0.110131 0.0688018 0.5)
(0.110131 0.0684883 0.5)
(0.110131 0.068153 0.5)
(0.110131 0.0677945 0.5)
(0.11013 0.067411 0.5)
(0.11013 0.0670008 0.5)
(0.11013 0.0665621 0.5)
(0.11013 0.066093 0.5)
(0.110129 0.0655912 0.5)
(0.110129 0.0650545 0.5)
(0.110129 0.0644805 0.5)
(0.110128 0.0638667 0.5)
(0.110128 0.0632101 0.5)
(0.110128 0.0625079 0.5)
(0.110127 0.0617569 0.5)
(0.110127 0.0609537 0.5)
(0.110126 0.0600946 0.5)
(0.110126 0.0591758 0.5)
(0.110125 0.0581932 0.5)
(0.110124 0.0571422 0.5)
(0.110124 0.0560182 0.5)
(0.110123 0.054816 0.5)
(0.110122 0.0535303 0.5)
(0.110121 0.0521552 0.5)
(0.11012 0.0506844 0.5)
(0.110119 0.0491115 0.5)
(0.110118 0.0474292 0.5)
(0.110117 0.0456299 0.5)
(0.110116 0.0437055 0.5)
(0.110115 0.0416474 0.5)
(0.110114 0.0394462 0.5)
(0.110112 0.037092 0.5)
(0.110111 0.0345741 0.5)
(0.110109 0.0318812 0.5)
(0.110107 0.029001 0.5)
(0.110106 0.0259206 0.5)
(0.110104 0.0226261 0.5)
(0.110101 0.0191026 0.5)
(0.110099 0.0153341 0.5)
(0.110097 0.0113036 0.5)
(0.110094 0.00699295 0.5)
(0.110091 0.00238261 0.5)
(0.118647 0.0686377 0.5)
(0.118647 0.068325 0.5)
(0.118646 0.0679905 0.5)
(0.118646 0.0676328 0.5)
(0.118646 0.0672502 0.5)
(0.118646 0.0668411 0.5)
(0.118645 0.0664034 0.5)
(0.118645 0.0659354 0.5)
(0.118645 0.0654348 0.5)
(0.118644 0.0648994 0.5)
(0.118644 0.0643268 0.5)
(0.118644 0.0637144 0.5)
(0.118643 0.0630594 0.5)
(0.118643 0.0623589 0.5)
(0.118642 0.0616097 0.5)
(0.118642 0.0608084 0.5)
(0.118641 0.0599514 0.5)
(0.118641 0.0590348 0.5)
(0.11864 0.0580545 0.5)
(0.118639 0.057006 0.5)
(0.118639 0.0558846 0.5)
(0.118638 0.0546853 0.5)
(0.118637 0.0534027 0.5)
(0.118636 0.0520308 0.5)
(0.118635 0.0505636 0.5)
(0.118634 0.0489944 0.5)
(0.118633 0.0473161 0.5)
(0.118632 0.0455211 0.5)
(0.118631 0.0436013 0.5)
(0.11863 0.0415481 0.5)
(0.118628 0.0393522 0.5)
(0.118627 0.0370036 0.5)
(0.118625 0.0344917 0.5)
(0.118623 0.0318051 0.5)
(0.118622 0.0289319 0.5)
(0.11862 0.0258588 0.5)
(0.118617 0.0225722 0.5)
(0.118615 0.019057 0.5)
(0.118613 0.0152975 0.5)
(0.11861 0.0112767 0.5)
(0.118608 0.00697628 0.5)
(0.118605 0.00237693 0.5)
(0.127119 0.0684634 0.5)
(0.127119 0.0681515 0.5)
(0.127119 0.0678179 0.5)
(0.127119 0.0674611 0.5)
(0.127118 0.0670795 0.5)
(0.127118 0.0666713 0.5)
(0.127118 0.0662348 0.5)
(0.127118 0.065768 0.5)
(0.127117 0.0652687 0.5)
(0.127117 0.0647346 0.5)
(0.127116 0.0641635 0.5)
(0.127116 0.0635526 0.5)
(0.127116 0.0628993 0.5)
(0.127115 0.0622005 0.5)
(0.127115 0.0614532 0.5)
(0.127114 0.060654 0.5)
(0.127114 0.0597991 0.5)
(0.127113 0.0588849 0.5)
(0.127112 0.057907 0.5)
(0.127112 0.0568612 0.5)
(0.127111 0.0557427 0.5)
(0.12711 0.0545465 0.5)
(0.127109 0.0532671 0.5)
(0.127108 0.0518987 0.5)
(0.127107 0.0504352 0.5)
(0.127106 0.04887 0.5)
(0.127105 0.0471959 0.5)
(0.127104 0.0454055 0.5)
(0.127103 0.0434906 0.5)
(0.127101 0.0414426 0.5)
(0.1271 0.0392522 0.5)
(0.127098 0.0369096 0.5)
(0.127097 0.0344041 0.5)
(0.127095 0.0317244 0.5)
(0.127093 0.0288584 0.5)
(0.127091 0.0257932 0.5)
(0.127089 0.0225149 0.5)
(0.127086 0.0190087 0.5)
(0.127084 0.0152587 0.5)
(0.127081 0.011248 0.5)
(0.127078 0.00695857 0.5)
(0.127075 0.0023709 0.5)
(0.135549 0.0682793 0.5)
(0.135549 0.0679682 0.5)
(0.135549 0.0676355 0.5)
(0.135549 0.0672796 0.5)
(0.135548 0.0668991 0.5)
(0.135548 0.066492 0.5)
(0.135548 0.0660567 0.5)
(0.135547 0.0655911 0.5)
(0.135547 0.0650931 0.5)
(0.135547 0.0645605 0.5)
(0.135546 0.0639909 0.5)
(0.135546 0.0633817 0.5)
(0.135546 0.0627301 0.5)
(0.135545 0.0620332 0.5)
(0.135545 0.0612879 0.5)
(0.135544 0.0604908 0.5)
(0.135543 0.0596383 0.5)
(0.135543 0.0587265 0.5)
(0.135542 0.0577513 0.5)
(0.135541 0.0567083 0.5)
(0.135541 0.0555928 0.5)
(0.13554 0.0543998 0.5)
(0.135539 0.0531238 0.5)
(0.135538 0.0517591 0.5)
(0.135537 0.0502996 0.5)
(0.135536 0.0487385 0.5)
(0.135535 0.047069 0.5)
(0.135533 0.0452834 0.5)
(0.135532 0.0433737 0.5)
(0.135531 0.0413312 0.5)
(0.135529 0.0391467 0.5)
(0.135528 0.0368103 0.5)
(0.135526 0.0343115 0.5)
(0.135524 0.0316391 0.5)
(0.135522 0.0287808 0.5)
(0.13552 0.0257238 0.5)
(0.135518 0.0224543 0.5)
(0.135515 0.0189575 0.5)
(0.135513 0.0152176 0.5)
(0.13551 0.0112178 0.5)
(0.135507 0.00693985 0.5)
(0.135504 0.00236452 0.5)
(0.143937 0.0680857 0.5)
(0.143937 0.0677755 0.5)
(0.143937 0.0674437 0.5)
(0.143936 0.0670888 0.5)
(0.143936 0.0667093 0.5)
(0.143936 0.0663034 0.5)
(0.143935 0.0658693 0.5)
(0.143935 0.0654051 0.5)
(0.143935 0.0649085 0.5)
(0.143934 0.0643774 0.5)
(0.143934 0.0638094 0.5)
(0.143933 0.0632019 0.5)
(0.143933 0.0625522 0.5)
(0.143933 0.0618573 0.5)
(0.143932 0.0611141 0.5)
(0.143931 0.0603193 0.5)
(0.143931 0.0594691 0.5)
(0.14393 0.0585599 0.5)
(0.143929 0.0575875 0.5)
(0.143929 0.0565475 0.5)
(0.143928 0.0554351 0.5)
(0.143927 0.0542455 0.5)
(0.143926 0.0529731 0.5)
(0.143925 0.0516123 0.5)
(0.143924 0.0501569 0.5)
(0.143923 0.0486003 0.5)
(0.143922 0.0469355 0.5)
(0.143921 0.045155 0.5)
(0.143919 0.0432507 0.5)
(0.143918 0.0412139 0.5)
(0.143916 0.0390356 0.5)
(0.143915 0.0367059 0.5)
(0.143913 0.0342142 0.5)
(0.143911 0.0315493 0.5)
(0.143909 0.0286992 0.5)
(0.143907 0.0256509 0.5)
(0.143904 0.0223906 0.5)
(0.143902 0.0189038 0.5)
(0.143899 0.0151745 0.5)
(0.143896 0.011186 0.5)
(0.143893 0.00692017 0.5)
(0.14389 0.00235781 0.5)
(0.152282 0.0678829 0.5)
(0.152282 0.0675736 0.5)
(0.152282 0.0672429 0.5)
(0.152282 0.0668891 0.5)
(0.152281 0.0665107 0.5)
(0.152281 0.066106 0.5)
(0.152281 0.0656732 0.5)
(0.15228 0.0652103 0.5)
(0.15228 0.0647152 0.5)
(0.15228 0.0641857 0.5)
(0.152279 0.0636194 0.5)
(0.152279 0.0630137 0.5)
(0.152278 0.062366 0.5)
(0.152278 0.0616731 0.5)
(0.152277 0.0609322 0.5)
(0.152277 0.0601397 0.5)
(0.152276 0.0592921 0.5)
(0.152275 0.0583856 0.5)
(0.152275 0.057416 0.5)
(0.152274 0.0563791 0.5)
(0.152273 0.0552701 0.5)
(0.152272 0.054084 0.5)
(0.152271 0.0528154 0.5)
(0.15227 0.0514586 0.5)
(0.152269 0.0500076 0.5)
(0.152268 0.0484556 0.5)
(0.152267 0.0467958 0.5)
(0.152266 0.0450205 0.5)
(0.152264 0.0431219 0.5)
(0.152263 0.0410912 0.5)
(0.152261 0.0389194 0.5)
(0.15226 0.0365966 0.5)
(0.152258 0.0341124 0.5)
(0.152256 0.0314554 0.5)
(0.152254 0.0286137 0.5)
(0.152251 0.0255745 0.5)
(0.152249 0.022324 0.5)
(0.152247 0.0188475 0.5)
(0.152244 0.0151293 0.5)
(0.152241 0.0111527 0.5)
(0.152238 0.00689956 0.5)
(0.152234 0.00235079 0.5)
(0.160586 0.0676715 0.5)
(0.160586 0.0673632 0.5)
(0.160585 0.0670334 0.5)
(0.160585 0.0666807 0.5)
(0.160585 0.0663035 0.5)
(0.160585 0.0659001 0.5)
(0.160584 0.0654687 0.5)
(0.160584 0.0650072 0.5)
(0.160584 0.0645137 0.5)
(0.160583 0.0639858 0.5)
(0.160583 0.0634213 0.5)
(0.160582 0.0628175 0.5)
(0.160582 0.0621717 0.5)
(0.160581 0.061481 0.5)
(0.160581 0.0607424 0.5)
(0.16058 0.0599523 0.5)
(0.16058 0.0591074 0.5)
(0.160579 0.0582037 0.5)
(0.160578 0.0572372 0.5)
(0.160577 0.0562035 0.5)
(0.160577 0.0550979 0.5)
(0.160576 0.0539155 0.5)
(0.160575 0.0526509 0.5)
(0.160574 0.0512984 0.5)
(0.160573 0.0498518 0.5)
(0.160571 0.0483047 0.5)
(0.16057 0.04665 0.5)
(0.160569 0.0448803 0.5)
(0.160567 0.0429876 0.5)
(0.160566 0.0409632 0.5)
(0.160564 0.0387982 0.5)
(0.160563 0.0364826 0.5)
(0.160561 0.0340061 0.5)
(0.160559 0.0313574 0.5)
(0.160557 0.0285246 0.5)
(0.160554 0.0254948 0.5)
(0.160552 0.0222544 0.5)
(0.160549 0.0187888 0.5)
(0.160547 0.0150822 0.5)
(0.160544 0.0111179 0.5)
(0.16054 0.00687807 0.5)
(0.160537 0.00234347 0.5)
(0.168848 0.0674518 0.5)
(0.168847 0.0671444 0.5)
(0.168847 0.0668158 0.5)
(0.168847 0.0664642 0.5)
(0.168847 0.0660883 0.5)
(0.168846 0.0656861 0.5)
(0.168846 0.0652561 0.5)
(0.168846 0.0647961 0.5)
(0.168845 0.0643042 0.5)
(0.168845 0.063778 0.5)
(0.168844 0.0632153 0.5)
(0.168844 0.0626135 0.5)
(0.168843 0.0619698 0.5)
(0.168843 0.0612814 0.5)
(0.168842 0.0605451 0.5)
(0.168842 0.0597577 0.5)
(0.168841 0.0589155 0.5)
(0.16884 0.0580147 0.5)
(0.16884 0.0570514 0.5)
(0.168839 0.056021 0.5)
(0.168838 0.054919 0.5)
(0.168837 0.0537405 0.5)
(0.168836 0.0524799 0.5)
(0.168835 0.0511318 0.5)
(0.168834 0.0496899 0.5)
(0.168833 0.0481478 0.5)
(0.168832 0.0464985 0.5)
(0.16883 0.0447346 0.5)
(0.168829 0.042848 0.5)
(0.168827 0.0408302 0.5)
(0.168826 0.0386722 0.5)
(0.168824 0.0363642 0.5)
(0.168822 0.0338957 0.5)
(0.16882 0.0312556 0.5)
(0.168818 0.028432 0.5)
(0.168816 0.025412 0.5)
(0.168813 0.0221822 0.5)
(0.168811 0.0187278 0.5)
(0.168808 0.0150332 0.5)
(0.168805 0.0110818 0.5)
(0.168802 0.00685574 0.5)
(0.168798 0.00233586 0.5)
(0.177068 0.0672241 0.5)
(0.177068 0.0669178 0.5)
(0.177067 0.0665903 0.5)
(0.177067 0.0662399 0.5)
(0.177067 0.0658652 0.5)
(0.177066 0.0654645 0.5)
(0.177066 0.0650358 0.5)
(0.177066 0.0645774 0.5)
(0.177065 0.0640872 0.5)
(0.177065 0.0635628 0.5)
(0.177065 0.063002 0.5)
(0.177064 0.0624022 0.5)
(0.177064 0.0617607 0.5)
(0.177063 0.0610746 0.5)
(0.177063 0.0603408 0.5)
(0.177062 0.059556 0.5)
(0.177061 0.0587166 0.5)
(0.177061 0.0578189 0.5)
(0.17706 0.0568588 0.5)
(0.177059 0.0558319 0.5)
(0.177058 0.0547337 0.5)
(0.177057 0.0535591 0.5)
(0.177056 0.0523028 0.5)
(0.177055 0.0509592 0.5)
(0.177054 0.0495222 0.5)
(0.177053 0.0479853 0.5)
(0.177052 0.0463416 0.5)
(0.17705 0.0445836 0.5)
(0.177049 0.0427034 0.5)
(0.177047 0.0406924 0.5)
(0.177046 0.0385417 0.5)
(0.177044 0.0362415 0.5)
(0.177042 0.0337813 0.5)
(0.17704 0.0311501 0.5)
(0.177038 0.028336 0.5)
(0.177036 0.0253263 0.5)
(0.177033 0.0221073 0.5)
(0.17703 0.0186646 0.5)
(0.177028 0.0149825 0.5)
(0.177025 0.0110444 0.5)
(0.177021 0.0068326 0.5)
(0.177018 0.00232797 0.5)
(0.185247 0.066989 0.5)
(0.185246 0.0666838 0.5)
(0.185246 0.0663573 0.5)
(0.185246 0.0660082 0.5)
(0.185246 0.0656348 0.5)
(0.185245 0.0652355 0.5)
(0.185245 0.0648083 0.5)
(0.185245 0.0643515 0.5)
(0.185244 0.063863 0.5)
(0.185244 0.0633405 0.5)
(0.185243 0.0627816 0.5)
(0.185243 0.0621839 0.5)
(0.185242 0.0615446 0.5)
(0.185242 0.060861 0.5)
(0.185241 0.0601297 0.5)
(0.185241 0.0593477 0.5)
(0.18524 0.0585112 0.5)
(0.185239 0.0576167 0.5)
(0.185239 0.0566599 0.5)
(0.185238 0.0556366 0.5)
(0.185237 0.0545422 0.5)
(0.185236 0.0533717 0.5)
(0.185235 0.0521199 0.5)
(0.185234 0.050781 0.5)
(0.185233 0.049349 0.5)
(0.185232 0.0478175 0.5)
(0.185231 0.0461795 0.5)
(0.185229 0.0444276 0.5)
(0.185228 0.042554 0.5)
(0.185226 0.0405501 0.5)
(0.185225 0.0384069 0.5)
(0.185223 0.0361147 0.5)
(0.185221 0.0336631 0.5)
(0.185219 0.0310411 0.5)
(0.185217 0.0282369 0.5)
(0.185214 0.0252377 0.5)
(0.185212 0.02203 0.5)
(0.185209 0.0185993 0.5)
(0.185206 0.0149301 0.5)
(0.185203 0.0110058 0.5)
(0.1852 0.0068087 0.5)
(0.185197 0.00231983 0.5)
(0.193384 0.0667467 0.5)
(0.193384 0.0664426 0.5)
(0.193384 0.0661173 0.5)
(0.193384 0.0657695 0.5)
(0.193383 0.0653974 0.5)
(0.193383 0.0649995 0.5)
(0.193383 0.064574 0.5)
(0.193382 0.0641188 0.5)
(0.193382 0.063632 0.5)
(0.193382 0.0631114 0.5)
(0.193381 0.0625545 0.5)
(0.193381 0.061959 0.5)
(0.19338 0.0613221 0.5)
(0.19338 0.0606408 0.5)
(0.193379 0.0599123 0.5)
(0.193378 0.059133 0.5)
(0.193378 0.0582996 0.5)
(0.193377 0.0574083 0.5)
(0.193376 0.056455 0.5)
(0.193376 0.0554354 0.5)
(0.193375 0.054345 0.5)
(0.193374 0.0531787 0.5)
(0.193373 0.0519314 0.5)
(0.193372 0.0505973 0.5)
(0.193371 0.0491705 0.5)
(0.19337 0.0476445 0.5)
(0.193368 0.0460125 0.5)
(0.193367 0.044267 0.5)
(0.193365 0.0424001 0.5)
(0.193364 0.0404034 0.5)
(0.193362 0.038268 0.5)
(0.193361 0.0359841 0.5)
(0.193359 0.0335414 0.5)
(0.193357 0.0309289 0.5)
(0.193354 0.0281348 0.5)
(0.193352 0.0251464 0.5)
(0.19335 0.0219503 0.5)
(0.193347 0.018532 0.5)
(0.193344 0.0148761 0.5)
(0.193341 0.010966 0.5)
(0.193338 0.00678407 0.5)
(0.193334 0.00231144 0.5)
(0.201481 0.0664977 0.5)
(0.201481 0.0661947 0.5)
(0.201481 0.0658707 0.5)
(0.20148 0.0655241 0.5)
(0.20148 0.0651535 0.5)
(0.20148 0.0647571 0.5)
(0.20148 0.0643331 0.5)
(0.201479 0.0638796 0.5)
(0.201479 0.0633947 0.5)
(0.201478 0.062876 0.5)
(0.201478 0.0623212 0.5)
(0.201477 0.0617279 0.5)
(0.201477 0.0610933 0.5)
(0.201476 0.0604146 0.5)
(0.201476 0.0596888 0.5)
(0.201475 0.0589125 0.5)
(0.201475 0.0580822 0.5)
(0.201474 0.0571942 0.5)
(0.201473 0.0562444 0.5)
(0.201472 0.0552286 0.5)
(0.201472 0.0541422 0.5)
(0.201471 0.0529803 0.5)
(0.20147 0.0517377 0.5)
(0.201469 0.0504086 0.5)
(0.201468 0.0489871 0.5)
(0.201466 0.0474668 0.5)
(0.201465 0.0458408 0.5)
(0.201464 0.0441018 0.5)
(0.201462 0.0422419 0.5)
(0.201461 0.0402527 0.5)
(0.201459 0.0381252 0.5)
(0.201457 0.0358498 0.5)
(0.201456 0.0334163 0.5)
(0.201454 0.0308135 0.5)
(0.201451 0.0280298 0.5)
(0.201449 0.0250526 0.5)
(0.201447 0.0218684 0.5)
(0.201444 0.0184629 0.5)
(0.201441 0.0148206 0.5)
(0.201438 0.0109251 0.5)
(0.201435 0.00675876 0.5)
(0.201431 0.00230282 0.5)
(0.209537 0.0662424 0.5)
(0.209537 0.0659406 0.5)
(0.209537 0.0656178 0.5)
(0.209537 0.0652726 0.5)
(0.209536 0.0649034 0.5)
(0.209536 0.0645085 0.5)
(0.209536 0.0640861 0.5)
(0.209535 0.0636344 0.5)
(0.209535 0.0631513 0.5)
(0.209534 0.0626346 0.5)
(0.209534 0.0620819 0.5)
(0.209534 0.0614909 0.5)
(0.209533 0.0608588 0.5)
(0.209533 0.0601827 0.5)
(0.209532 0.0594596 0.5)
(0.209531 0.0586863 0.5)
(0.209531 0.0578592 0.5)
(0.20953 0.0569746 0.5)
(0.209529 0.0560285 0.5)
(0.209529 0.0550166 0.5)
(0.209528 0.0539344 0.5)
(0.209527 0.0527769 0.5)
(0.209526 0.051539 0.5)
(0.209525 0.0502151 0.5)
(0.209524 0.048799 0.5)
(0.209523 0.0472846 0.5)
(0.209521 0.0456649 0.5)
(0.20952 0.0439325 0.5)
(0.209519 0.0420798 0.5)
(0.209517 0.0400982 0.5)
(0.209515 0.0379789 0.5)
(0.209514 0.0357122 0.5)
(0.209512 0.033288 0.5)
(0.20951 0.0306952 0.5)
(0.209508 0.0279222 0.5)
(0.209505 0.0249564 0.5)
(0.209503 0.0217845 0.5)
(0.2095 0.018392 0.5)
(0.209498 0.0147637 0.5)
(0.209495 0.0108831 0.5)
(0.209491 0.00673282 0.5)
(0.209488 0.00229397 0.5)
(0.217553 0.0659812 0.5)
(0.217553 0.0656806 0.5)
(0.217552 0.0653591 0.5)
(0.217552 0.0650152 0.5)
(0.217552 0.0646474 0.5)
(0.217551 0.0642541 0.5)
(0.217551 0.0638334 0.5)
(0.217551 0.0633834 0.5)
(0.21755 0.0629022 0.5)
(0.21755 0.0623876 0.5)
(0.21755 0.0618371 0.5)
(0.217549 0.0612484 0.5)
(0.217549 0.0606188 0.5)
(0.217548 0.0599454 0.5)
(0.217548 0.0592251 0.5)
(0.217547 0.0584549 0.5)
(0.217546 0.057631 0.5)
(0.217546 0.0567499 0.5)
(0.217545 0.0558075 0.5)
(0.217544 0.0547996 0.5)
(0.217543 0.0537217 0.5)
(0.217543 0.0525688 0.5)
(0.217542 0.0513358 0.5)
(0.217541 0.050017 0.5)
(0.21754 0.0486066 0.5)
(0.217538 0.0470981 0.5)
(0.217537 0.0454848 0.5)
(0.217536 0.0437593 0.5)
(0.217534 0.0419138 0.5)
(0.217533 0.0399401 0.5)
(0.217531 0.0378291 0.5)
(0.21753 0.0355714 0.5)
(0.217528 0.0331567 0.5)
(0.217526 0.0305742 0.5)
(0.217524 0.0278121 0.5)
(0.217522 0.024858 0.5)
(0.217519 0.0216986 0.5)
(0.217517 0.0183195 0.5)
(0.217514 0.0147055 0.5)
(0.217511 0.0108402 0.5)
(0.217508 0.00670626 0.5)
(0.217504 0.00228493 0.5)
(0.225528 0.0657145 0.5)
(0.225528 0.065415 0.5)
(0.225528 0.0650948 0.5)
(0.225527 0.0647523 0.5)
(0.225527 0.0643861 0.5)
(0.225527 0.0639943 0.5)
(0.225526 0.0635753 0.5)
(0.225526 0.0631272 0.5)
(0.225526 0.0626479 0.5)
(0.225525 0.0621354 0.5)
(0.225525 0.0615871 0.5)
(0.225525 0.0610008 0.5)
(0.225524 0.0603737 0.5)
(0.225524 0.059703 0.5)
(0.225523 0.0589857 0.5)
(0.225522 0.0582185 0.5)
(0.225522 0.057398 0.5)
(0.225521 0.0565205 0.5)
(0.22552 0.0555819 0.5)
(0.22552 0.0545781 0.5)
(0.225519 0.0535045 0.5)
(0.225518 0.0523563 0.5)
(0.225517 0.0511282 0.5)
(0.225516 0.0498148 0.5)
(0.225515 0.0484101 0.5)
(0.225514 0.0469077 0.5)
(0.225513 0.0453009 0.5)
(0.225511 0.0435824 0.5)
(0.22551 0.0417444 0.5)
(0.225509 0.0397786 0.5)
(0.225507 0.0376762 0.5)
(0.225505 0.0354276 0.5)
(0.225504 0.0330227 0.5)
(0.225502 0.0304506 0.5)
(0.2255 0.0276997 0.5)
(0.225497 0.0247575 0.5)
(0.225495 0.0216108 0.5)
(0.225493 0.0182454 0.5)
(0.22549 0.014646 0.5)
(0.225487 0.0107964 0.5)
(0.225484 0.00667915 0.5)
(0.225481 0.00227569 0.5)
(0.233463 0.0654426 0.5)
(0.233463 0.0651444 0.5)
(0.233463 0.0648255 0.5)
(0.233463 0.0644844 0.5)
(0.233462 0.0641197 0.5)
(0.233462 0.0637295 0.5)
(0.233462 0.0633123 0.5)
(0.233461 0.062866 0.5)
(0.233461 0.0623887 0.5)
(0.233461 0.0618783 0.5)
(0.23346 0.0613323 0.5)
(0.23346 0.0607484 0.5)
(0.233459 0.0601239 0.5)
(0.233459 0.059456 0.5)
(0.233458 0.0587417 0.5)
(0.233458 0.0579777 0.5)
(0.233457 0.0571605 0.5)