/*--------------------------------*- C++ -*----------------------------------*\
| =========                 |                                                 |
| \\      /  F ield         | OpenFOAM: The Open Source CFD Toolbox           |
|  \\    /   O peration     | Version:  2406                                  |
|   \\  /    A nd           | Website:  www.openfoam.com                      |
|    \\/     M anipulation  |                                                 |
\*---------------------------------------------------------------------------*/
FoamFile
{
    version     2.0;
    format      ascii;
    arch        "LSB;label=32;scalar=64";
    class       volVectorField;
    location    "0";
    object      C;
}
// * * * * * * * * * * * * * * * * * * * * * * * * * * * * * * * * * * * * * //

dimensions      [0 1 0 0 0 0 0];

internalField   nonuniform List<vector> 
18000
(
(0.00346481 0.00228817 0.005)
(0.0103784 0.00228786 0.005)
(0.0172599 0.00228734 0.005)
(0.0241094 0.00228653 0.005)
(0.0309272 0.00228543 0.005)
(0.0377133 0.00228411 0.005)
(0.0444679 0.00228254 0.005)
(0.0511912 0.00228068 0.005)
(0.0578833 0.00227862 0.005)
(0.0645443 0.00227631 0.005)
(0.0711744 0.00227375 0.005)
(0.0777737 0.00227098 0.005)
(0.0843424 0.00226799 0.005)
(0.0908806 0.00226476 0.005)
(0.0973884 0.00226135 0.005)
(0.103866 0.00225773 0.005)
(0.110314 0.00225387 0.005)
(0.116731 0.00224987 0.005)
(0.123119 0.00224566 0.005)
(0.129477 0.00224124 0.005)
(0.135806 0.00223669 0.005)
(0.142105 0.00223194 0.005)
(0.148375 0.00222702 0.005)
(0.154616 0.00222197 0.005)
(0.160828 0.00221673 0.005)
(0.167012 0.00221138 0.005)
(0.173166 0.00220587 0.005)
(0.179292 0.00220021 0.005)
(0.18539 0.00219445 0.005)
(0.191459 0.00218854 0.005)
(0.1975 0.00218253 0.005)
(0.203513 0.0021764 0.005)
(0.209498 0.00217015 0.005)
(0.215455 0.00216382 0.005)
(0.221385 0.00215739 0.005)
(0.227287 0.00215087 0.005)
(0.233161 0.00214426 0.005)
(0.239009 0.00213756 0.005)
(0.244829 0.00213081 0.005)
(0.250622 0.00212397 0.005)
(0.256389 0.00211709 0.005)
(0.262128 0.00211014 0.005)
(0.267841 0.00210313 0.005)
(0.273528 0.00209608 0.005)
(0.279188 0.00208898 0.005)
(0.284822 0.00208185 0.005)
(0.290429 0.00207468 0.005)
(0.296011 0.00206749 0.005)
(0.301567 0.00206027 0.005)
(0.307097 0.00205303 0.005)
(0.312601 0.00204578 0.005)
(0.31808 0.00203851 0.005)
(0.323533 0.00203124 0.005)
(0.328961 0.00202396 0.005)
(0.334364 0.00201669 0.005)
(0.339741 0.00200943 0.005)
(0.345094 0.00200217 0.005)
(0.350422 0.00199493 0.005)
(0.355725 0.0019877 0.005)
(0.361004 0.00198049 0.005)
(0.366258 0.00197331 0.005)
(0.371487 0.00196616 0.005)
(0.376693 0.00195904 0.005)
(0.381874 0.00195195 0.005)
(0.387031 0.0019449 0.005)
(0.392165 0.00193788 0.005)
(0.397274 0.00193092 0.005)
(0.40236 0.00192399 0.005)
(0.407422 0.00191712 0.005)
(0.41246 0.0019103 0.005)
(0.417476 0.00190353 0.005)
(0.422468 0.00189682 0.005)
(0.427437 0.00189017 0.005)
(0.432382 0.00188358 0.005)
(0.437305 0.00187705 0.005)
(0.442205 0.00187059 0.005)
(0.447082 0.0018642 0.005)
(0.451937 0.00185788 0.005)
(0.456769 0.00185163 0.005)
(0.461578 0.00184545 0.005)
(0.466366 0.00183935 0.005)
(0.471131 0.00183332 0.005)
(0.475874 0.00182738 0.005)
(0.480595 0.00182151 0.005)
(0.485294 0.00181573 0.005)
(0.489971 0.00181002 0.005)
(0.494627 0.00180441 0.005)
(0.499261 0.00179887 0.005)
(0.503873 0.00179343 0.005)
(0.508464 0.00178806 0.005)
(0.513034 0.00178279 0.005)
(0.517582 0.00177761 0.005)
(0.52211 0.00177252 0.005)
(0.526616 0.00176752 0.005)
(0.531102 0.00176261 0.005)
(0.535566 0.0017578 0.005)
(0.54001 0.00175307 0.005)
(0.544434 0.00174845 0.005)
(0.548836 0.0017439 0.005)
(0.553219 0.00173946 0.005)
(0.557581 0.00173511 0.005)
(0.561923 0.00173086 0.005)
(0.566244 0.00172671 0.005)
(0.570546 0.00172265 0.005)
(0.574827 0.00171869 0.005)
(0.579089 0.00171481 0.005)
(0.583331 0.00171104 0.005)
(0.587554 0.00170736 0.005)
(0.591756 0.00170378 0.005)
(0.595939 0.0017003 0.005)
(0.600103 0.00169691 0.005)
(0.604248 0.00169362 0.005)
(0.608373 0.00169041 0.005)
(0.612479 0.0016873 0.005)
(0.616566 0.0016843 0.005)
(0.620634 0.00168138 0.005)
(0.624683 0.00167858 0.005)
(0.628714 0.00167583 0.005)
(0.632725 0.00167321 0.005)
(0.636718 0.00167067 0.005)
(0.640693 0.00166822 0.005)
(0.644649 0.00166588 0.005)
(0.648587 0.00166359 0.005)
(0.652506 0.00166143 0.005)
(0.656407 0.00165935 0.005)
(0.660291 0.00165735 0.005)
(0.664156 0.00165546 0.005)
(0.668003 0.00165363 0.005)
(0.671832 0.0016519 0.005)
(0.675644 0.00165028 0.005)
(0.679438 0.00164871 0.005)
(0.683214 0.00164725 0.005)
(0.686973 0.00164587 0.005)
(0.690714 0.00164456 0.005)
(0.694438 0.00164337 0.005)
(0.698145 0.00164221 0.005)
(0.701834 0.00164115 0.005)
(0.705507 0.00164021 0.005)
(0.709162 0.0016393 0.005)
(0.7128 0.0016385 0.005)
(0.716422 0.00163777 0.005)
(0.720026 0.0016371 0.005)
(0.723614 0.00163654 0.005)
(0.727185 0.00163603 0.005)
(0.73074 0.00163559 0.005)
(0.734278 0.00163526 0.005)
(0.7378 0.00163495 0.005)
(0.741305 0.00163474 0.005)
(0.744795 0.00163463 0.005)
(0.748268 0.00163453 0.005)
(0.00346491 0.00671768 0.005)
(0.0103787 0.00671678 0.005)
(0.0172604 0.00671524 0.005)
(0.0241101 0.00671288 0.005)
(0.030928 0.00670965 0.005)
(0.0377144 0.00670578 0.005)
(0.0444691 0.00670115 0.005)
(0.0511926 0.00669571 0.005)
(0.0578848 0.00668964 0.005)
(0.064546 0.00668288 0.005)
(0.0711762 0.00667535 0.005)
(0.0777757 0.00666723 0.005)
(0.0843445 0.00665846 0.005)
(0.0908828 0.00664897 0.005)
(0.0973908 0.00663896 0.005)
(0.103869 0.00662832 0.005)
(0.110316 0.00661701 0.005)
(0.116734 0.00660527 0.005)
(0.123122 0.0065929 0.005)
(0.12948 0.00657993 0.005)
(0.135809 0.00656656 0.005)
(0.142108 0.00655261 0.005)
(0.148379 0.00653819 0.005)
(0.15462 0.00652334 0.005)
(0.160832 0.00650798 0.005)
(0.167015 0.00649227 0.005)
(0.173169 0.0064761 0.005)
(0.179295 0.00645948 0.005)
(0.185393 0.00644255 0.005)
(0.191462 0.00642522 0.005)
(0.197503 0.00640757 0.005)
(0.203516 0.00638958 0.005)
(0.209501 0.00637124 0.005)
(0.215458 0.00635266 0.005)
(0.221388 0.00633375 0.005)
(0.22729 0.00631463 0.005)
(0.233164 0.00629523 0.005)
(0.239012 0.00627557 0.005)
(0.244832 0.00625573 0.005)
(0.250625 0.00623567 0.005)
(0.256392 0.00621545 0.005)
(0.262131 0.00619504 0.005)
(0.267844 0.00617448 0.005)
(0.27353 0.00615378 0.005)
(0.27919 0.00613293 0.005)
(0.284824 0.006112 0.005)
(0.290431 0.00609095 0.005)
(0.296013 0.00606984 0.005)
(0.301569 0.00604864 0.005)
(0.307098 0.0060274 0.005)
(0.312602 0.00600611 0.005)
(0.318081 0.00598477 0.005)
(0.323534 0.00596342 0.005)
(0.328962 0.00594206 0.005)
(0.334365 0.00592072 0.005)
(0.339742 0.00589938 0.005)
(0.345095 0.00587808 0.005)
(0.350423 0.00585681 0.005)
(0.355726 0.0058356 0.005)
(0.361004 0.00581444 0.005)
(0.366258 0.00579336 0.005)
(0.371487 0.00577236 0.005)
(0.376693 0.00575145 0.005)
(0.381874 0.00573064 0.005)
(0.387031 0.00570993 0.005)
(0.392164 0.00568935 0.005)
(0.397273 0.00566889 0.005)
(0.402359 0.00564857 0.005)
(0.407421 0.00562839 0.005)
(0.412459 0.00560836 0.005)
(0.417475 0.00558849 0.005)
(0.422466 0.00556879 0.005)
(0.427435 0.00554926 0.005)
(0.432381 0.00552992 0.005)
(0.437303 0.00551075 0.005)
(0.442203 0.00549179 0.005)
(0.44708 0.00547302 0.005)
(0.451935 0.00545446 0.005)
(0.456767 0.00543611 0.005)
(0.461576 0.00541797 0.005)
(0.466364 0.00540006 0.005)
(0.471129 0.00538237 0.005)
(0.475871 0.00536492 0.005)
(0.480592 0.00534769 0.005)
(0.485291 0.00533071 0.005)
(0.489968 0.00531396 0.005)
(0.494624 0.00529747 0.005)
(0.499258 0.00528122 0.005)
(0.50387 0.00526523 0.005)
(0.508461 0.00524948 0.005)
(0.513031 0.00523401 0.005)
(0.517579 0.00521879 0.005)
(0.522107 0.00520384 0.005)
(0.526613 0.00518917 0.005)
(0.531098 0.00517476 0.005)
(0.535563 0.00516063 0.005)
(0.540007 0.00514675 0.005)
(0.54443 0.00513317 0.005)
(0.548833 0.00511983 0.005)
(0.553215 0.0051068 0.005)
(0.557578 0.00509402 0.005)
(0.561919 0.00508153 0.005)
(0.566241 0.00506936 0.005)
(0.570543 0.00505743 0.005)
(0.574824 0.00504581 0.005)
(0.579086 0.00503442 0.005)
(0.583328 0.00502335 0.005)
(0.58755 0.00501253 0.005)
(0.591753 0.00500202 0.005)
(0.595936 0.00499182 0.005)
(0.6001 0.00498185 0.005)
(0.604245 0.0049722 0.005)
(0.60837 0.00496276 0.005)
(0.612476 0.00495366 0.005)
(0.616563 0.00494485 0.005)
(0.620631 0.00493628 0.005)
(0.62468 0.00492803 0.005)
(0.628711 0.00491998 0.005)
(0.632723 0.00491226 0.005)
(0.636716 0.00490482 0.005)
(0.64069 0.00489762 0.005)
(0.644646 0.00489075 0.005)
(0.648584 0.00488405 0.005)
(0.652504 0.00487768 0.005)
(0.656405 0.0048716 0.005)
(0.660288 0.00486572 0.005)
(0.664154 0.00486017 0.005)
(0.668001 0.00485478 0.005)
(0.67183 0.00484971 0.005)
(0.675642 0.00484496 0.005)
(0.679436 0.00484035 0.005)
(0.683212 0.00483607 0.005)
(0.686971 0.004832 0.005)
(0.690713 0.00482817 0.005)
(0.694437 0.00482465 0.005)
(0.698143 0.00482125 0.005)
(0.701833 0.00481816 0.005)
(0.705505 0.00481539 0.005)
(0.709161 0.00481272 0.005)
(0.712799 0.00481036 0.005)
(0.716421 0.00480823 0.005)
(0.720025 0.00480626 0.005)
(0.723613 0.00480461 0.005)
(0.727185 0.00480311 0.005)
(0.73074 0.00480182 0.005)
(0.734278 0.00480084 0.005)
(0.7378 0.00479995 0.005)
(0.741305 0.00479932 0.005)
(0.744794 0.00479899 0.005)
(0.748268 0.0047987 0.005)
(0.003465 0.010863 0.005)
(0.010379 0.0108616 0.005)
(0.0172608 0.0108591 0.005)
(0.0241107 0.0108553 0.005)
(0.0309288 0.01085 0.005)
(0.0377153 0.0108438 0.005)
(0.0444703 0.0108363 0.005)
(0.0511939 0.0108275 0.005)
(0.0578863 0.0108177 0.005)
(0.0645476 0.0108067 0.005)
(0.071178 0.0107946 0.005)
(0.0777776 0.0107814 0.005)
(0.0843465 0.0107673 0.005)
(0.090885 0.0107519 0.005)
(0.0973931 0.0107357 0.005)
(0.103871 0.0107185 0.005)
(0.110319 0.0107002 0.005)
(0.116737 0.0106812 0.005)
(0.123125 0.0106612 0.005)
(0.129483 0.0106403 0.005)
(0.135812 0.0106186 0.005)
(0.142111 0.0105961 0.005)
(0.148382 0.0105728 0.005)
(0.154623 0.0105488 0.005)
(0.160835 0.0105239 0.005)
(0.167018 0.0104985 0.005)
(0.173172 0.0104724 0.005)
(0.179298 0.0104455 0.005)
(0.185396 0.0104181 0.005)
(0.191465 0.0103901 0.005)
(0.197506 0.0103616 0.005)
(0.203519 0.0103325 0.005)
(0.209504 0.0103028 0.005)
(0.215461 0.0102728 0.005)
(0.221391 0.0102422 0.005)
(0.227293 0.0102113 0.005)
(0.233167 0.0101799 0.005)
(0.239015 0.0101481 0.005)
(0.244835 0.010116 0.005)
(0.250628 0.0100836 0.005)
(0.256394 0.0100509 0.005)
(0.262134 0.0100179 0.005)
(0.267846 0.00998463 0.005)
(0.273533 0.00995116 0.005)
(0.279192 0.00991745 0.005)
(0.284826 0.0098836 0.005)
(0.290433 0.00984956 0.005)
(0.296015 0.00981542 0.005)
(0.30157 0.00978115 0.005)
(0.3071 0.00974679 0.005)
(0.312604 0.00971236 0.005)
(0.318082 0.00967786 0.005)
(0.323535 0.00964334 0.005)
(0.328963 0.0096088 0.005)
(0.334366 0.00957428 0.005)
(0.339743 0.00953978 0.005)
(0.345096 0.00950533 0.005)
(0.350423 0.00947094 0.005)
(0.355726 0.00943664 0.005)
(0.361004 0.00940243 0.005)
(0.366258 0.00936833 0.005)
(0.371488 0.00933437 0.005)
(0.376693 0.00930055 0.005)
(0.381874 0.0092669 0.005)
(0.387031 0.00923342 0.005)
(0.392164 0.00920014 0.005)
(0.397273 0.00916705 0.005)
(0.402358 0.00913419 0.005)
(0.40742 0.00910156 0.005)
(0.412458 0.00906917 0.005)
(0.417473 0.00903704 0.005)
(0.422465 0.00900519 0.005)
(0.427434 0.0089736 0.005)
(0.432379 0.00894232 0.005)
(0.437302 0.00891133 0.005)
(0.442202 0.00888067 0.005)
(0.447079 0.00885032 0.005)
(0.451933 0.0088203 0.005)
(0.456765 0.00879063 0.005)
(0.461574 0.0087613 0.005)
(0.466361 0.00873233 0.005)
(0.471126 0.00870373 0.005)
(0.475869 0.0086755 0.005)
(0.48059 0.00864764 0.005)
(0.485289 0.00862019 0.005)
(0.489966 0.00859311 0.005)
(0.494621 0.00856644 0.005)
(0.499255 0.00854016 0.005)
(0.503867 0.00851431 0.005)
(0.508458 0.00848884 0.005)
(0.513028 0.00846382 0.005)
(0.517576 0.00843919 0.005)
(0.522104 0.00841502 0.005)
(0.52661 0.00839131 0.005)
(0.531095 0.008368 0.005)
(0.53556 0.00834516 0.005)
(0.540004 0.00832271 0.005)
(0.544427 0.00830075 0.005)
(0.54883 0.00827918 0.005)
(0.553212 0.0082581 0.005)
(0.557574 0.00823743 0.005)
(0.561916 0.00821725 0.005)
(0.566238 0.00819756 0.005)
(0.570539 0.00817826 0.005)
(0.574821 0.00815948 0.005)
(0.579083 0.00814106 0.005)
(0.583325 0.00812316 0.005)
(0.587547 0.00810567 0.005)
(0.59175 0.00808866 0.005)
(0.595933 0.00807217 0.005)
(0.600097 0.00805604 0.005)
(0.604242 0.00804044 0.005)
(0.608367 0.00802518 0.005)
(0.612473 0.00801046 0.005)
(0.61656 0.00799622 0.005)
(0.620628 0.00798235 0.005)
(0.624678 0.00796902 0.005)
(0.628708 0.007956 0.005)
(0.63272 0.00794352 0.005)
(0.636713 0.00793149 0.005)
(0.640688 0.00791984 0.005)
(0.644644 0.00790873 0.005)
(0.648582 0.00789789 0.005)
(0.652502 0.00788759 0.005)
(0.656403 0.00787776 0.005)
(0.660286 0.00786825 0.005)
(0.664152 0.00785928 0.005)
(0.667999 0.00785056 0.005)
(0.671828 0.00784236 0.005)
(0.67564 0.00783468 0.005)
(0.679434 0.00782723 0.005)
(0.683211 0.0078203 0.005)
(0.68697 0.00781373 0.005)
(0.690711 0.00780753 0.005)
(0.694435 0.00780184 0.005)
(0.698142 0.00779634 0.005)
(0.701832 0.00779135 0.005)
(0.705504 0.00778687 0.005)
(0.70916 0.00778254 0.005)
(0.712798 0.00777873 0.005)
(0.71642 0.00777529 0.005)
(0.720025 0.00777211 0.005)
(0.723613 0.00776943 0.005)
(0.727184 0.007767 0.005)
(0.730739 0.00776492 0.005)
(0.734277 0.00776334 0.005)
(0.737799 0.0077619 0.005)
(0.741305 0.00776088 0.005)
(0.744794 0.00776035 0.005)
(0.748267 0.00775987 0.005)
(0.00346508 0.0147424 0.005)
(0.0103792 0.0147404 0.005)
(0.0172612 0.0147371 0.005)
(0.0241113 0.0147319 0.005)
(0.0309296 0.0147248 0.005)
(0.0377162 0.0147163 0.005)
(0.0444713 0.0147061 0.005)
(0.0511951 0.0146942 0.005)
(0.0578876 0.0146809 0.005)
(0.0645491 0.014666 0.005)
(0.0711796 0.0146495 0.005)
(0.0777793 0.0146317 0.005)
(0.0843484 0.0146125 0.005)
(0.090887 0.0145916 0.005)
(0.0973952 0.0145697 0.005)
(0.103873 0.0145463 0.005)
(0.110321 0.0145215 0.005)
(0.116739 0.0144957 0.005)
(0.123127 0.0144686 0.005)
(0.129486 0.0144401 0.005)
(0.135815 0.0144108 0.005)
(0.142114 0.0143802 0.005)
(0.148384 0.0143485 0.005)
(0.154625 0.0143159 0.005)
(0.160838 0.0142822 0.005)
(0.167021 0.0142477 0.005)
(0.173175 0.0142123 0.005)
(0.179301 0.0141758 0.005)
(0.185399 0.0141386 0.005)
(0.191468 0.0141006 0.005)
(0.197509 0.0140619 0.005)
(0.203522 0.0140224 0.005)
(0.209507 0.0139821 0.005)
(0.215464 0.0139414 0.005)
(0.221393 0.0138999 0.005)
(0.227295 0.0138579 0.005)
(0.23317 0.0138153 0.005)
(0.239017 0.0137722 0.005)
(0.244837 0.0137287 0.005)
(0.25063 0.0136846 0.005)
(0.256397 0.0136403 0.005)
(0.262136 0.0135955 0.005)
(0.267849 0.0135503 0.005)
(0.273535 0.0135049 0.005)
(0.279195 0.0134592 0.005)
(0.284828 0.0134132 0.005)
(0.290435 0.013367 0.005)
(0.296017 0.0133207 0.005)
(0.301572 0.0132742 0.005)
(0.307102 0.0132276 0.005)
(0.312605 0.0131808 0.005)
(0.318084 0.013134 0.005)
(0.323537 0.0130872 0.005)
(0.328964 0.0130403 0.005)
(0.334367 0.0129934 0.005)
(0.339744 0.0129466 0.005)
(0.345096 0.0128999 0.005)
(0.350424 0.0128532 0.005)
(0.355727 0.0128066 0.005)
(0.361005 0.0127602 0.005)
(0.366258 0.012714 0.005)
(0.371488 0.0126679 0.005)
(0.376693 0.012622 0.005)
(0.381874 0.0125763 0.005)
(0.38703 0.0125309 0.005)
(0.392163 0.0124857 0.005)
(0.397272 0.0124408 0.005)
(0.402358 0.0123962 0.005)
(0.407419 0.0123519 0.005)
(0.412458 0.012308 0.005)
(0.417472 0.0122644 0.005)
(0.422464 0.0122211 0.005)
(0.427433 0.0121783 0.005)
(0.432378 0.0121358 0.005)
(0.4373 0.0120938 0.005)
(0.4422 0.0120521 0.005)
(0.447077 0.0120109 0.005)
(0.451931 0.0119702 0.005)
(0.456763 0.0119299 0.005)
(0.461572 0.0118901 0.005)
(0.466359 0.0118508 0.005)
(0.471124 0.011812 0.005)
(0.475867 0.0117737 0.005)
(0.480588 0.0117359 0.005)
(0.485286 0.0116986 0.005)
(0.489964 0.0116619 0.005)
(0.494619 0.0116257 0.005)
(0.499253 0.01159 0.005)
(0.503865 0.0115549 0.005)
(0.508456 0.0115204 0.005)
(0.513025 0.0114864 0.005)
(0.517574 0.011453 0.005)
(0.522101 0.0114202 0.005)
(0.526607 0.011388 0.005)
(0.531093 0.0113564 0.005)
(0.535557 0.0113254 0.005)
(0.540001 0.0112949 0.005)
(0.544424 0.0112651 0.005)
(0.548827 0.0112358 0.005)
(0.55321 0.0112072 0.005)
(0.557572 0.0111792 0.005)
(0.561913 0.0111518 0.005)
(0.566235 0.0111251 0.005)
(0.570537 0.0110989 0.005)
(0.574818 0.0110734 0.005)
(0.57908 0.0110484 0.005)
(0.583322 0.0110241 0.005)
(0.587544 0.0110004 0.005)
(0.591747 0.0109773 0.005)
(0.59593 0.0109549 0.005)
(0.600094 0.010933 0.005)
(0.604239 0.0109118 0.005)
(0.608364 0.0108911 0.005)
(0.61247 0.0108711 0.005)
(0.616558 0.0108518 0.005)
(0.620626 0.010833 0.005)
(0.624675 0.0108149 0.005)
(0.628706 0.0107972 0.005)
(0.632718 0.0107803 0.005)
(0.636711 0.010764 0.005)
(0.640686 0.0107482 0.005)
(0.644642 0.0107331 0.005)
(0.64858 0.0107184 0.005)
(0.652499 0.0107044 0.005)
(0.656401 0.0106911 0.005)
(0.660284 0.0106782 0.005)
(0.66415 0.010666 0.005)
(0.667997 0.0106541 0.005)
(0.671827 0.010643 0.005)
(0.675638 0.0106326 0.005)
(0.679433 0.0106225 0.005)
(0.683209 0.0106131 0.005)
(0.686968 0.0106042 0.005)
(0.69071 0.0105957 0.005)
(0.694434 0.010588 0.005)
(0.698141 0.0105806 0.005)
(0.701831 0.0105738 0.005)
(0.705503 0.0105677 0.005)
(0.709159 0.0105618 0.005)
(0.712797 0.0105567 0.005)
(0.716419 0.010552 0.005)
(0.720024 0.0105477 0.005)
(0.723612 0.010544 0.005)
(0.727184 0.0105407 0.005)
(0.730739 0.0105379 0.005)
(0.734277 0.0105358 0.005)
(0.737799 0.0105338 0.005)
(0.741305 0.0105324 0.005)
(0.744794 0.0105317 0.005)
(0.748267 0.0105311 0.005)
(0.00346516 0.0183729 0.005)
(0.0103794 0.0183705 0.005)
(0.0172616 0.0183662 0.005)
(0.0241118 0.0183598 0.005)
(0.0309303 0.018351 0.005)
(0.0377171 0.0183404 0.005)
(0.0444723 0.0183277 0.005)
(0.0511962 0.0183128 0.005)
(0.0578889 0.0182962 0.005)
(0.0645505 0.0182778 0.005)
(0.0711811 0.0182571 0.005)
(0.077781 0.0182349 0.005)
(0.0843502 0.018211 0.005)
(0.0908889 0.018185 0.005)
(0.0973972 0.0181576 0.005)
(0.103875 0.0181285 0.005)
(0.110323 0.0180976 0.005)
(0.116741 0.0180655 0.005)
(0.123129 0.0180317 0.005)
(0.129488 0.0179962 0.005)
(0.135817 0.0179596 0.005)
(0.142117 0.0179215 0.005)
(0.148387 0.017882 0.005)
(0.154628 0.0178414 0.005)
(0.16084 0.0177994 0.005)
(0.167023 0.0177564 0.005)
(0.173178 0.0177122 0.005)
(0.179304 0.0176667 0.005)
(0.185402 0.0176205 0.005)
(0.191471 0.0175731 0.005)
(0.197512 0.0175248 0.005)
(0.203525 0.0174756 0.005)
(0.209509 0.0174254 0.005)
(0.215467 0.0173746 0.005)
(0.221396 0.0173229 0.005)
(0.227298 0.0172706 0.005)
(0.233173 0.0172175 0.005)
(0.23902 0.0171638 0.005)
(0.24484 0.0171095 0.005)
(0.250633 0.0170546 0.005)
(0.256399 0.0169994 0.005)
(0.262138 0.0169435 0.005)
(0.267851 0.0168873 0.005)
(0.273537 0.0168307 0.005)
(0.279196 0.0167737 0.005)
(0.28483 0.0167164 0.005)
(0.290437 0.0166589 0.005)
(0.296018 0.0166011 0.005)
(0.301574 0.0165431 0.005)
(0.307103 0.016485 0.005)
(0.312607 0.0164268 0.005)
(0.318085 0.0163684 0.005)
(0.323538 0.0163101 0.005)
(0.328965 0.0162516 0.005)
(0.334368 0.0161933 0.005)
(0.339745 0.0161349 0.005)
(0.345097 0.0160766 0.005)
(0.350424 0.0160185 0.005)
(0.355727 0.0159605 0.005)
(0.361005 0.0159026 0.005)
(0.366259 0.0158449 0.005)
(0.371488 0.0157875 0.005)
(0.376693 0.0157303 0.005)
(0.381873 0.0156734 0.005)
(0.38703 0.0156168 0.005)
(0.392163 0.0155605 0.005)
(0.397272 0.0155045 0.005)
(0.402357 0.0154489 0.005)
(0.407419 0.0153937 0.005)
(0.412457 0.015339 0.005)
(0.417472 0.0152846 0.005)
(0.422463 0.0152307 0.005)
(0.427431 0.0151773 0.005)
(0.432377 0.0151244 0.005)
(0.437299 0.015072 0.005)
(0.442199 0.0150201 0.005)
(0.447075 0.0149688 0.005)
(0.45193 0.014918 0.005)
(0.456761 0.0148678 0.005)
(0.461571 0.0148182 0.005)
(0.466357 0.0147692 0.005)
(0.471122 0.0147209 0.005)
(0.475865 0.0146731 0.005)
(0.480586 0.014626 0.005)
(0.485284 0.0145796 0.005)
(0.489961 0.0145338 0.005)
(0.494617 0.0144887 0.005)
(0.49925 0.0144442 0.005)
(0.503862 0.0144005 0.005)
(0.508453 0.0143574 0.005)
(0.513023 0.0143151 0.005)
(0.517571 0.0142735 0.005)
(0.522098 0.0142326 0.005)
(0.526605 0.0141925 0.005)
(0.53109 0.014153 0.005)
(0.535555 0.0141144 0.005)
(0.539998 0.0140764 0.005)
(0.544422 0.0140393 0.005)
(0.548824 0.0140028 0.005)
(0.553207 0.0139672 0.005)
(0.557569 0.0139322 0.005)
(0.561911 0.0138981 0.005)
(0.566232 0.0138648 0.005)
(0.570534 0.0138321 0.005)
(0.574816 0.0138004 0.005)
(0.579077 0.0137692 0.005)
(0.583319 0.0137389 0.005)
(0.587542 0.0137093 0.005)
(0.591745 0.0136806 0.005)
(0.595928 0.0136527 0.005)
(0.600092 0.0136254 0.005)
(0.604236 0.013599 0.005)
(0.608362 0.0135732 0.005)
(0.612468 0.0135483 0.005)
(0.616555 0.0135242 0.005)
(0.620623 0.0135008 0.005)
(0.624673 0.0134782 0.005)
(0.628703 0.0134562 0.005)
(0.632715 0.0134351 0.005)
(0.636709 0.0134148 0.005)
(0.640683 0.013395 0.005)
(0.64464 0.0133762 0.005)
(0.648578 0.0133579 0.005)
(0.652497 0.0133405 0.005)
(0.656399 0.0133239 0.005)
(0.660282 0.0133078 0.005)
(0.664148 0.0132926 0.005)
(0.667995 0.0132779 0.005)
(0.671825 0.013264 0.005)
(0.675637 0.013251 0.005)
(0.679431 0.0132384 0.005)
(0.683208 0.0132267 0.005)
(0.686967 0.0132156 0.005)
(0.690708 0.0132051 0.005)
(0.694433 0.0131955 0.005)
(0.69814 0.0131862 0.005)
(0.70183 0.0131777 0.005)
(0.705502 0.0131701 0.005)
(0.709158 0.0131628 0.005)
(0.712797 0.0131564 0.005)
(0.716418 0.0131506 0.005)
(0.720023 0.0131452 0.005)
(0.723612 0.0131406 0.005)
(0.727183 0.0131365 0.005)
(0.730738 0.013133 0.005)
(0.734277 0.0131303 0.005)
(0.737799 0.0131279 0.005)
(0.741305 0.0131262 0.005)
(0.744794 0.0131253 0.005)
(0.748267 0.0131245 0.005)
(0.00346523 0.0217705 0.005)
(0.0103797 0.0217676 0.005)
(0.017262 0.0217626 0.005)
(0.0241124 0.021755 0.005)
(0.0309309 0.0217445 0.005)
(0.0377178 0.0217319 0.005)
(0.0444732 0.021717 0.005)
(0.0511973 0.0216993 0.005)
(0.0578901 0.0216797 0.005)
(0.0645518 0.0216577 0.005)
(0.0711825 0.0216333 0.005)
(0.0777825 0.021607 0.005)
(0.0843518 0.0215786 0.005)
(0.0908906 0.0215478 0.005)
(0.097399 0.0215154 0.005)
(0.103877 0.0214809 0.005)
(0.110325 0.0214443 0.005)
(0.116743 0.0214062 0.005)
(0.123132 0.0213662 0.005)
(0.12949 0.0213241 0.005)
(0.135819 0.0212808 0.005)
(0.142119 0.0212356 0.005)
(0.148389 0.0211889 0.005)
(0.15463 0.0211407 0.005)
(0.160843 0.0210909 0.005)
(0.167026 0.02104 0.005)
(0.173181 0.0209876 0.005)
(0.179307 0.0209338 0.005)
(0.185404 0.0208789 0.005)
(0.191473 0.0208227 0.005)
(0.197514 0.0207656 0.005)
(0.203527 0.0207073 0.005)
(0.209512 0.0206478 0.005)
(0.215469 0.0205876 0.005)
(0.221399 0.0205263 0.005)
(0.2273 0.0204643 0.005)
(0.233175 0.0204015 0.005)
(0.239022 0.0203378 0.005)
(0.244842 0.0202735 0.005)
(0.250635 0.0202085 0.005)
(0.256401 0.0201429 0.005)
(0.26214 0.0200768 0.005)
(0.267853 0.0200102 0.005)
(0.273539 0.0199431 0.005)
(0.279198 0.0198755 0.005)
(0.284832 0.0198077 0.005)
(0.290439 0.0197395 0.005)
(0.29602 0.0196711 0.005)
(0.301575 0.0196024 0.005)
(0.307104 0.0195335 0.005)
(0.312608 0.0194645 0.005)
(0.318086 0.0193954 0.005)
(0.323539 0.0193262 0.005)
(0.328966 0.019257 0.005)
(0.334368 0.0191878 0.005)
(0.339746 0.0191186 0.005)
(0.345098 0.0190496 0.005)
(0.350425 0.0189807 0.005)
(0.355727 0.0189119 0.005)
(0.361005 0.0188434 0.005)
(0.366259 0.018775 0.005)
(0.371488 0.018707 0.005)
(0.376693 0.0186392 0.005)
(0.381873 0.0185718 0.005)
(0.38703 0.0185047 0.005)
(0.392162 0.018438 0.005)
(0.397271 0.0183717 0.005)
(0.402356 0.0183058 0.005)
(0.407418 0.0182404 0.005)
(0.412456 0.0181755 0.005)
(0.417471 0.0181111 0.005)
(0.422462 0.0180473 0.005)
(0.42743 0.017984 0.005)
(0.432376 0.0179213 0.005)
(0.437298 0.0178592 0.005)
(0.442197 0.0177977 0.005)
(0.447074 0.0177369 0.005)
(0.451928 0.0176767 0.005)
(0.45676 0.0176173 0.005)
(0.461569 0.0175585 0.005)
(0.466356 0.0175004 0.005)
(0.47112 0.0174431 0.005)
(0.475863 0.0173865 0.005)
(0.480584 0.0173307 0.005)
(0.485282 0.0172757 0.005)
(0.489959 0.0172214 0.005)
(0.494614 0.017168 0.005)
(0.499248 0.0171153 0.005)
(0.50386 0.0170635 0.005)
(0.508451 0.0170124 0.005)
(0.513021 0.0169623 0.005)
(0.517569 0.016913 0.005)
(0.522096 0.0168645 0.005)
(0.526602 0.016817 0.005)
(0.531088 0.0167703 0.005)
(0.535552 0.0167245 0.005)
(0.539996 0.0166795 0.005)
(0.544419 0.0166355 0.005)
(0.548822 0.0165923 0.005)
(0.553204 0.01655 0.005)
(0.557566 0.0165086 0.005)
(0.561908 0.0164681 0.005)
(0.56623 0.0164287 0.005)
(0.570531 0.01639 0.005)
(0.574813 0.0163524 0.005)
(0.579075 0.0163155 0.005)
(0.583317 0.0162796 0.005)
(0.587539 0.0162445 0.005)
(0.591742 0.0162104 0.005)
(0.595925 0.0161774 0.005)
(0.600089 0.0161451 0.005)
(0.604234 0.0161138 0.005)
(0.608359 0.0160832 0.005)
(0.612466 0.0160537 0.005)
(0.616553 0.0160252 0.005)
(0.620621 0.0159974 0.005)
(0.624671 0.0159707 0.005)
(0.628701 0.0159446 0.005)
(0.632713 0.0159196 0.005)
(0.636707 0.0158955 0.005)
(0.640681 0.0158721 0.005)
(0.644638 0.0158498 0.005)
(0.648576 0.0158281 0.005)
(0.652496 0.0158075 0.005)
(0.656397 0.0157878 0.005)
(0.660281 0.0157687 0.005)
(0.664146 0.0157507 0.005)
(0.667994 0.0157333 0.005)
(0.671823 0.0157168 0.005)
(0.675635 0.0157015 0.005)
(0.67943 0.0156865 0.005)
(0.683206 0.0156726 0.005)
(0.686965 0.0156595 0.005)
(0.690707 0.015647 0.005)
(0.694432 0.0156356 0.005)
(0.698139 0.0156246 0.005)
(0.701829 0.0156146 0.005)
(0.705501 0.0156056 0.005)
(0.709157 0.015597 0.005)
(0.712796 0.0155893 0.005)
(0.716418 0.0155824 0.005)
(0.720023 0.015576 0.005)
(0.723611 0.0155707 0.005)
(0.727183 0.0155658 0.005)
(0.730738 0.0155616 0.005)
(0.734276 0.0155585 0.005)
(0.737799 0.0155556 0.005)
(0.741304 0.0155535 0.005)
(0.744794 0.0155525 0.005)
(0.748267 0.0155515 0.005)
(0.0034653 0.0249501 0.005)
(0.0103799 0.0249468 0.005)
(0.0172623 0.0249411 0.005)
(0.0241128 0.0249323 0.005)
(0.0309315 0.0249203 0.005)
(0.0377186 0.0249059 0.005)
(0.0444741 0.0248888 0.005)
(0.0511982 0.0248686 0.005)
(0.0578912 0.024846 0.005)
(0.064553 0.0248209 0.005)
(0.0711839 0.0247929 0.005)
(0.077784 0.0247628 0.005)
(0.0843534 0.0247302 0.005)
(0.0908922 0.0246949 0.005)
(0.0974008 0.0246578 0.005)
(0.103879 0.0246182 0.005)
(0.110327 0.0245762 0.005)
(0.116745 0.0245327 0.005)
(0.123134 0.0244867 0.005)
(0.129492 0.0244385 0.005)
(0.135821 0.0243889 0.005)
(0.142121 0.0243371 0.005)
(0.148392 0.0242835 0.005)
(0.154633 0.0242284 0.005)
(0.160845 0.0241713 0.005)
(0.167028 0.024113 0.005)
(0.173183 0.0240529 0.005)
(0.179309 0.0239912 0.005)
(0.185406 0.0239283 0.005)
(0.191476 0.0238639 0.005)
(0.197517 0.0237984 0.005)
(0.203529 0.0237316 0.005)
(0.209514 0.0236635 0.005)
(0.215471 0.0235944 0.005)
(0.221401 0.0235242 0.005)
(0.227303 0.0234532 0.005)
(0.233177 0.0233812 0.005)
(0.239024 0.0233081 0.005)
(0.244844 0.0232345 0.005)
(0.250637 0.0231599 0.005)
(0.256403 0.0230849 0.005)
(0.262142 0.0230091 0.005)
(0.267855 0.0229327 0.005)
(0.273541 0.0228558 0.005)
(0.2792 0.0227784 0.005)
(0.284833 0.0227006 0.005)
(0.29044 0.0226225 0.005)
(0.296021 0.022544 0.005)
(0.301576 0.0224653 0.005)
(0.307106 0.0223864 0.005)
(0.312609 0.0223073 0.005)
(0.318087 0.0222281 0.005)
(0.32354 0.0221488 0.005)
(0.328967 0.0220695 0.005)
(0.334369 0.0219902 0.005)
(0.339746 0.021911 0.005)
(0.345098 0.0218318 0.005)
(0.350425 0.0217528 0.005)
(0.355728 0.0216741 0.005)
(0.361006 0.0215955 0.005)
(0.366259 0.0215172 0.005)
(0.371488 0.0214392 0.005)
(0.376693 0.0213615 0.005)
(0.381873 0.0212842 0.005)
(0.38703 0.0212073 0.005)
(0.392162 0.0211309 0.005)
(0.397271 0.0210549 0.005)
(0.402356 0.0209794 0.005)
(0.407417 0.0209044 0.005)
(0.412455 0.0208301 0.005)
(0.41747 0.0207563 0.005)
(0.422461 0.0206831 0.005)
(0.427429 0.0206106 0.005)
(0.432374 0.0205387 0.005)
(0.437297 0.0204675 0.005)
(0.442196 0.0203971 0.005)
(0.447073 0.0203274 0.005)
(0.451927 0.0202585 0.005)
(0.456758 0.0201903 0.005)
(0.461567 0.0201229 0.005)
(0.466354 0.0200564 0.005)
(0.471119 0.0199907 0.005)
(0.475861 0.0199259 0.005)
(0.480582 0.0198619 0.005)
(0.48528 0.0197988 0.005)
(0.489957 0.0197366 0.005)
(0.494612 0.0196754 0.005)
(0.499246 0.019615 0.005)
(0.503858 0.0195556 0.005)
(0.508449 0.0194971 0.005)
(0.513018 0.0194397 0.005)
(0.517567 0.0193831 0.005)
(0.522094 0.0193276 0.005)
(0.5266 0.0192732 0.005)
(0.531085 0.0192196 0.005)
(0.53555 0.0191671 0.005)
(0.539994 0.0191156 0.005)
(0.544417 0.0190652 0.005)
(0.54882 0.0190156 0.005)
(0.553202 0.0189672 0.005)
(0.557564 0.0189197 0.005)
(0.561906 0.0188734 0.005)
(0.566227 0.0188281 0.005)
(0.570529 0.0187838 0.005)
(0.574811 0.0187407 0.005)
(0.579072 0.0186984 0.005)
(0.583315 0.0186573 0.005)
(0.587537 0.0186171 0.005)
(0.59174 0.018578 0.005)
(0.595923 0.0185401 0.005)
(0.600087 0.0185031 0.005)
(0.604232 0.0184673 0.005)
(0.608357 0.0184322 0.005)
(0.612464 0.0183984 0.005)
(0.616551 0.0183657 0.005)
(0.620619 0.0183338 0.005)
(0.624669 0.0183032 0.005)
(0.628699 0.0182733 0.005)
(0.632711 0.0182446 0.005)
(0.636705 0.018217 0.005)
(0.640679 0.0181903 0.005)
(0.644636 0.0181647 0.005)
(0.648574 0.0181398 0.005)
(0.652494 0.0181162 0.005)
(0.656396 0.0180936 0.005)
(0.660279 0.0180718 0.005)
(0.664145 0.0180512 0.005)
(0.667992 0.0180311 0.005)
(0.671822 0.0180123 0.005)
(0.675634 0.0179947 0.005)
(0.679428 0.0179776 0.005)
(0.683205 0.0179616 0.005)
(0.686964 0.0179465 0.005)
(0.690706 0.0179323 0.005)
(0.69443 0.0179192 0.005)
(0.698138 0.0179066 0.005)
(0.701828 0.0178951 0.005)
(0.7055 0.0178848 0.005)
(0.709156 0.0178749 0.005)
(0.712795 0.0178662 0.005)
(0.716417 0.0178583 0.005)
(0.720022 0.0178509 0.005)
(0.72361 0.0178448 0.005)
(0.727182 0.0178392 0.005)
(0.730737 0.0178344 0.005)
(0.734276 0.0178308 0.005)
(0.737798 0.0178275 0.005)
(0.741304 0.0178252 0.005)
(0.744794 0.0178239 0.005)
(0.748267 0.0178229 0.005)
(0.00346537 0.0279258 0.005)
(0.0103801 0.027922 0.005)
(0.0172627 0.0279156 0.005)
(0.0241133 0.0279058 0.005)
(0.0309321 0.0278924 0.005)
(0.0377193 0.0278763 0.005)
(0.0444749 0.0278571 0.005)
(0.0511992 0.0278345 0.005)
(0.0578922 0.0278092 0.005)
(0.0645541 0.0277811 0.005)
(0.0711851 0.0277498 0.005)
(0.0777853 0.0277161 0.005)
(0.0843548 0.0276796 0.005)
(0.0908938 0.0276401 0.005)
(0.0974024 0.0275985 0.005)
(0.103881 0.0275543 0.005)